/*--------------------------------*- C++ -*----------------------------------*\
| =========                 |                                                 |
| \\      /  F ield         | OpenFOAM: The Open Source CFD Toolbox           |
|  \\    /   O peration     | Version:  2312                                  |
|   \\  /    A nd           | Website:  www.openfoam.com                      |
|    \\/     M anipulation  |                                                 |
\*---------------------------------------------------------------------------*/
FoamFile
{
    version     2.0;
    format      ascii;
    arch        "LSB;label=32;scalar=64";
    class       volScalarField;
    location    "2.35";
    object      gradTx;
}
// * * * * * * * * * * * * * * * * * * * * * * * * * * * * * * * * * * * * * //

dimensions      [0 -1 0 1 0 0 0];

internalField   nonuniform List<scalar> 
45
(
-186.5
-186.5
-186.5
-186.5
-186.5
-186.5
-186.5
-186.5
-186.5
-186.5
-186.5
-186.5
-186.5
-186.5
-186.5
-186.5
-186.5
-186.5
-186.5
-186.5
-186.5
-186.5
-186.5
-186.5
-186.5
-186.5
-186.5
-186.5
-186.5
-186.5
-186.5
-186.5
-186.5
-186.5
-186.5
-186.5
-186.5
-186.5
-186.5
-186.5
-186.5
-186.5
-186.5
-186.5
-186.5
)
;

boundaryField
{
    inlet
    {
        type            calculated;
        value           uniform -186.5;
    }
    outlet
    {
        type            calculated;
        value           uniform -186.5;
    }
    emptyWalls
    {
        type            empty;
    }
}


// ************************************************************************* //
