/*--------------------------------*- C++ -*----------------------------------*\
| =========                 |                                                 |
| \\      /  F ield         | OpenFOAM: The Open Source CFD Toolbox           |
|  \\    /   O peration     | Version:  2312                                  |
|   \\  /    A nd           | Website:  www.openfoam.com                      |
|    \\/     M anipulation  |                                                 |
\*---------------------------------------------------------------------------*/
FoamFile
{
    version     2.0;
    format      ascii;
    arch        "LSB;label=32;scalar=64";
    class       volScalarField;
    location    "1.65";
    object      T;
}
// * * * * * * * * * * * * * * * * * * * * * * * * * * * * * * * * * * * * * //

dimensions      [0 0 0 1 0 0 0];

internalField   nonuniform List<scalar> 
45
(
568.856
560.567
552.278
543.989
535.7
527.411
519.122
510.833
502.544
494.256
485.967
477.678
469.389
461.1
452.811
444.522
436.233
427.944
419.656
411.367
403.078
394.789
386.5
378.211
369.922
361.633
353.344
345.056
336.767
328.478
320.189
311.9
303.611
295.322
287.033
278.744
270.456
262.167
253.878
245.589
237.3
229.011
220.722
212.433
204.144
)
;

boundaryField
{
    inlet
    {
        type            fixedValue;
        value           uniform 573;
    }
    outlet
    {
        type            fixedValue;
        value           uniform 200;
    }
    emptyWalls
    {
        type            empty;
    }
}


// ************************************************************************* //
