/*--------------------------------*- C++ -*----------------------------------*\
| =========                 |                                                 |
| \\      /  F ield         | OpenFOAM: The Open Source CFD Toolbox           |
|  \\    /   O peration     | Version:  2312                                  |
|   \\  /    A nd           | Website:  www.openfoam.com                      |
|    \\/     M anipulation  |                                                 |
\*---------------------------------------------------------------------------*/
FoamFile
{
    version     2.0;
    format      ascii;
    arch        "LSB;label=32;scalar=64";
    class       volScalarField;
    location    "2.1";
    object      gradTy;
}
// * * * * * * * * * * * * * * * * * * * * * * * * * * * * * * * * * * * * * //

dimensions      [0 -1 0 1 0 0 0];

internalField   nonuniform List<scalar> 
33600
(
0.738495
0.737521
0.735342
0.732048
0.727752
0.722408
0.716082
0.708826
0.700658
0.691644
0.681827
0.671277
0.660038
0.648187
0.635799
0.62292
0.60963
0.595966
0.581993
0.567786
0.553389
0.538849
0.524236
0.50961
0.495
0.480429
0.46596
0.451659
0.437453
0.423465
0.40972
0.396184
0.38292
0.36997
0.357267
0.344898
0.332832
0.321096
0.309682
0.29862
0.287869
0.277485
0.267412
0.257705
0.248317
0.239282
0.230548
0.222164
0.214074
0.206339
0.1989
0.191781
0.184949
0.178397
0.172146
0.16615
0.160458
0.154988
0.149821
0.144867
0.14022
0.135777
0.131602
0.127611
0.123856
0.120307
0.116975
0.113858
0.110906
0.108174
0.105588
0.103248
0.101049
0.0990542
0.0971989
0.0955098
0.0939896
0.0925922
0.0913639
0.0902517
0.0893011
0.0884868
0.0878258
0.0872496
0.086778
0.0864798
0.08629
0.0862012
0.0861513
0.0862157
0.0864251
0.0866854
0.0869945
0.0873724
0.0878521
0.0883808
0.0889337
0.0895414
0.0901761
0.0908377
0.0915167
0.0921847
0.0928413
0.0934703
0.0940659
0.0946301
0.0951236
0.0955207
0.0958435
0.0960915
0.0962119
0.096168
0.0959864
0.0956812
0.0951829
0.0944487
0.0935327
0.0924347
0.0910656
0.0894218
0.0875614
0.085443
0.0830047
0.0802884
0.0773248
0.0740546
0.0704666
0.0666231
0.0625134
0.0581021
0.0534425
0.0485477
0.0433977
0.0380657
0.032542
0.0268309
0.0210465
0.0150976
0.00908642
0.00302811
2.21603
2.21287
2.20638
2.19652
2.18361
2.16759
2.1486
2.1268
2.10228
2.07521
2.04573
2.01405
1.98034
1.94478
1.90759
1.86894
1.82902
1.78801
1.74607
1.70341
1.66021
1.61659
1.57274
1.52884
1.48498
1.44127
1.39783
1.35487
1.3123
1.27031
1.22905
1.18848
1.14868
1.10979
1.07171
1.03458
0.99839
0.963174
0.928936
0.895734
0.863499
0.832319
0.802129
0.772985
0.744837
0.717715
0.691538
0.666379
0.642152
0.618922
0.59662
0.575225
0.554732
0.535071
0.516316
0.498347
0.48126
0.464897
0.449384
0.434574
0.42059
0.407272
0.394693
0.38274
0.371467
0.360847
0.350853
0.341495
0.332653
0.324447
0.316746
0.30969
0.303129
0.297099
0.291545
0.28645
0.281874
0.277715
0.274021
0.270732
0.2679
0.265449
0.263388
0.261715
0.260375
0.259443
0.258794
0.258481
0.258438
0.258659
0.259197
0.259962
0.260972
0.262142
0.263522
0.26511
0.26682
0.268642
0.27053
0.272519
0.274564
0.276567
0.278518
0.280411
0.282235
0.283915
0.285361
0.286593
0.287612
0.28833
0.28865
0.288556
0.288074
0.28712
0.285573
0.283438
0.280735
0.27737
0.27325
0.268388
0.262799
0.256392
0.249101
0.240996
0.232077
0.222235
0.211511
0.199999
0.187618
0.174379
0.160425
0.145722
0.130285
0.114273
0.0976852
0.0806084
0.0631405
0.0453351
0.0272874
0.0091154
3.69484
3.68931
3.67849
3.66208
3.6405
3.6138
3.58211
3.5457
3.50477
3.45958
3.4104
3.35751
3.30128
3.24196
3.1799
3.1154
3.04878
2.98036
2.91039
2.83922
2.76715
2.69443
2.62129
2.54805
2.4749
2.40201
2.32958
2.25787
2.18695
2.11695
2.04813
1.98051
1.91416
1.84928
1.78585
1.72392
1.66361
1.60492
1.54785
1.49249
1.43879
1.38679
1.33651
1.28792
1.24101
1.1958
1.1522
1.11026
1.06994
1.03119
0.994038
0.958352
0.924196
0.891442
0.860179
0.830266
0.801772
0.774561
0.748694
0.724075
0.70072
0.678549
0.657525
0.63764
0.618843
0.601174
0.584516
0.568904
0.554215
0.540528
0.527777
0.515973
0.505053
0.494951
0.485701
0.477219
0.469587
0.462684
0.456539
0.451088
0.446331
0.442287
0.438852
0.436081
0.433863
0.432271
0.431193
0.430646
0.430601
0.430986
0.431888
0.433172
0.434848
0.436847
0.439165
0.441807
0.444663
0.447714
0.450892
0.454211
0.457612
0.460948
0.464218
0.467411
0.470455
0.473232
0.475663
0.477781
0.479505
0.480665
0.481213
0.481131
0.480347
0.478723
0.476157
0.472665
0.468184
0.462534
0.455683
0.447652
0.438316
0.42759
0.415503
0.402026
0.387088
0.370698
0.352893
0.333646
0.312969
0.290958
0.267652
0.243099
0.217426
0.19067
0.162997
0.134547
0.105357
0.0756384
0.0455594
0.0152152
5.17547
5.16766
5.15241
5.12945
5.09914
5.06167
5.01722
4.96613
4.9087
4.84529
4.77631
4.70213
4.62324
4.54006
4.45302
4.36257
4.26915
4.1732
4.07513
3.97534
3.8743
3.77239
3.66989
3.56722
3.46471
3.36258
3.26111
3.16061
3.06127
2.96323
2.8668
2.77209
2.67918
2.58828
2.49945
2.41274
2.32828
2.2461
2.16621
2.08868
2.01351
1.94071
1.87031
1.80229
1.73663
1.67332
1.61231
1.5536
1.49716
1.44294
1.39091
1.34098
1.29316
1.24734
1.20357
1.16173
1.12183
1.08378
1.04757
1.01315
0.980436
0.949429
0.919981
0.892174
0.865865
0.841132
0.817832
0.795966
0.775464
0.756316
0.738495
0.721953
0.706646
0.692503
0.67957
0.667741
0.657077
0.647408
0.638777
0.631183
0.624548
0.618909
0.614113
0.610219
0.607128
0.604902
0.603431
0.602652
0.602589
0.603165
0.604455
0.606273
0.608597
0.611432
0.614721
0.618439
0.622443
0.626715
0.631226
0.6359
0.640648
0.645331
0.649962
0.654491
0.658734
0.66263
0.666126
0.669131
0.671537
0.673184
0.674012
0.673965
0.672866
0.670602
0.667101
0.662253
0.655966
0.648105
0.638563
0.627329
0.614278
0.599282
0.582384
0.563527
0.54259
0.51966
0.49475
0.467748
0.438791
0.407997
0.375297
0.340869
0.304899
0.267413
0.228597
0.188643
0.147765
0.106096
0.0638794
0.0213199
6.65869
6.64862
6.62889
6.59933
6.56023
6.5119
6.45458
6.3887
6.31465
6.23289
6.14397
6.04836
5.94667
5.83946
5.7273
5.61075
5.49037
5.36674
5.24042
5.1119
4.98175
4.85052
4.71856
4.58636
4.45438
4.32293
4.19232
4.06296
3.93512
3.809
3.68489
3.56305
3.44354
3.32658
3.21232
3.10082
2.99217
2.88648
2.78376
2.68405
2.5874
2.49381
2.4033
2.31585
2.23145
2.15005
2.07164
1.99617
1.92363
1.85394
1.78706
1.72289
1.66143
1.60256
1.54631
1.49255
1.44126
1.39238
1.34584
1.30163
1.25958
1.21974
1.1819
1.14617
1.11238
1.08058
1.05066
1.02257
0.996242
0.971657
0.948762
0.927485
0.907826
0.889666
0.873076
0.857896
0.844164
0.831761
0.820691
0.810958
0.802469
0.795221
0.789052
0.78406
0.780149
0.777286
0.775393
0.7744
0.774364
0.775163
0.776805
0.779167
0.782185
0.785887
0.790151
0.794942
0.800131
0.805656
0.811517
0.817548
0.823662
0.829762
0.835763
0.841621
0.847129
0.852189
0.856767
0.860676
0.863804
0.86601
0.867129
0.867121
0.865788
0.862915
0.858484
0.852345
0.844281
0.834221
0.82204
0.807609
0.790859
0.771658
0.749931
0.725685
0.698834
0.669326
0.637221
0.602548
0.565312
0.525585
0.483528
0.439239
0.392822
0.344578
0.294564
0.243091
0.190422
0.136724
0.0823029
0.0274815
8.14527
8.13296
8.1087
8.07244
8.02447
7.96516
7.89486
7.81403
7.72322
7.62294
7.51388
7.39666
7.27198
7.14055
7.00306
6.86021
6.71268
6.56119
6.40642
6.24902
6.0896
5.92887
5.76732
5.60545
5.44386
5.28297
5.12313
4.9648
4.80837
4.65408
4.50225
4.35319
4.20704
4.06399
3.92425
3.78791
3.65507
3.52584
3.40027
3.27839
3.16024
3.04587
2.93525
2.82838
2.72525
2.62578
2.52997
2.43777
2.34914
2.264
2.18228
2.10389
2.0288
1.9569
1.88818
1.82252
1.75988
1.70018
1.64334
1.58934
1.538
1.48932
1.44313
1.39948
1.35823
1.31941
1.28285
1.24857
1.21643
1.18641
1.15848
1.13249
1.10849
1.08633
1.06607
1.04756
1.03079
1.01567
1.00218
0.990319
0.979956
0.971109
0.963628
0.957552
0.952798
0.949303
0.947036
0.945867
0.945845
0.946882
0.948905
0.95183
0.955559
0.960145
0.965417
0.971285
0.977696
0.984512
0.991731
0.999163
1.00667
1.01422
1.02163
1.02885
1.03568
1.04193
1.04762
1.05251
1.05639
1.05917
1.06068
1.06074
1.05919
1.05578
1.05046
1.04306
1.03328
1.02104
1.00627
0.988712
0.968243
0.944859
0.918383
0.888735
0.855948
0.819907
0.780594
0.73819
0.692664
0.643996
0.592486
0.538278
0.481485
0.422282
0.361068
0.298001
0.233382
0.167574
0.100907
0.0336915
9.63599
9.62141
9.59257
9.54953
9.49259
9.42216
9.33871
9.24276
9.13497
9.01597
8.88655
8.7475
8.5996
8.44369
8.28064
8.11124
7.93633
7.75675
7.5733
7.38681
7.19792
7.0075
6.81616
6.62447
6.43311
6.24261
6.05342
5.86602
5.68088
5.49834
5.31871
5.14235
4.96948
4.8003
4.63503
4.4738
4.31674
4.16395
4.0155
3.87145
3.73181
3.59664
3.46593
3.33965
3.21779
3.10027
2.98708
2.87817
2.77346
2.67287
2.57635
2.48375
2.39507
2.31016
2.22901
2.15147
2.07751
2.00702
1.93991
1.87613
1.81552
1.75803
1.70351
1.65198
1.60329
1.55746
1.51431
1.47382
1.4359
1.40047
1.36751
1.33684
1.30852
1.28237
1.25847
1.23663
1.21685
1.19902
1.18312
1.16913
1.15695
1.14652
1.13772
1.13057
1.12502
1.12092
1.11827
1.11696
1.11698
1.11827
1.12068
1.1242
1.12869
1.13416
1.14046
1.14746
1.15511
1.16326
1.17186
1.18074
1.18968
1.1987
1.2076
1.21621
1.22437
1.23191
1.23875
1.24466
1.24935
1.25277
1.25473
1.25491
1.25316
1.24934
1.24319
1.23451
1.22309
1.20878
1.19142
1.17077
1.14667
1.1191
1.0879
1.0529
1.0141
0.97154
0.925149
0.874896
0.820916
0.763452
0.702501
0.638154
0.570852
0.500783
0.428179
0.353378
0.276776
0.198762
0.119672
0.0399603
11.1316
11.1148
11.0813
11.0313
10.9653
10.8836
10.7868
10.6755
10.5505
10.4126
10.2625
10.1013
9.92994
9.74928
9.56036
9.36412
9.16156
8.95362
8.74122
8.52536
8.3068
8.08644
7.86509
7.64339
7.42206
7.2018
6.98309
6.76649
6.55252
6.34159
6.13408
5.93034
5.73066
5.53529
5.34443
5.15827
4.97696
4.80058
4.62924
4.46299
4.30187
4.1459
3.9951
3.84942
3.70883
3.57329
3.44275
3.31712
3.19638
3.08036
2.96906
2.86228
2.76003
2.66215
2.5686
2.47923
2.39397
2.31272
2.23537
2.16184
2.09197
2.02571
1.96288
1.90351
1.84742
1.79458
1.74487
1.69821
1.65452
1.61372
1.57574
1.5404
1.50779
1.47768
1.45015
1.42501
1.40222
1.38171
1.36343
1.34736
1.33335
1.32135
1.31127
1.30307
1.29671
1.29204
1.28905
1.28761
1.28769
1.28925
1.2921
1.29623
1.30151
1.3079
1.31527
1.32342
1.33234
1.34188
1.35189
1.36223
1.37269
1.38323
1.39366
1.4037
1.41327
1.42218
1.4302
1.43715
1.44279
1.44691
1.44932
1.44973
1.4479
1.44367
1.43675
1.42688
1.41392
1.3976
1.37763
1.35394
1.32638
1.29461
1.25858
1.21834
1.17369
1.12444
1.07083
1.01291
0.950574
0.883991
0.813429
0.739169
0.661209
0.580062
0.49598
0.4094
0.320681
0.230264
0.138657
0.0463157
12.633
12.6138
12.5756
12.5186
12.4433
12.3501
12.2398
12.1129
11.9704
11.8132
11.6423
11.4587
11.2634
11.0577
10.8426
10.6192
10.3886
10.152
9.91034
9.66481
9.4163
9.16573
8.91411
8.66216
8.41068
8.16044
7.91203
7.66607
7.42313
7.18368
6.94816
6.71695
6.49038
6.26873
6.05224
5.84111
5.63549
5.43551
5.24126
5.0528
4.87018
4.69342
4.52252
4.35745
4.19817
4.0446
3.89674
3.75442
3.61768
3.48626
3.3602
3.23928
3.1235
3.01268
2.90676
2.80559
2.70907
2.61711
2.52953
2.44631
2.36719
2.29219
2.2211
2.1539
2.09044
2.03064
1.97438
1.92158
1.87216
1.82598
1.78303
1.74307
1.70617
1.67214
1.641
1.61258
1.58682
1.56366
1.54301
1.52486
1.50905
1.49551
1.48416
1.47494
1.46781
1.46261
1.45927
1.45773
1.45792
1.45978
1.46309
1.46786
1.47399
1.48133
1.48977
1.49915
1.50939
1.52035
1.53181
1.54365
1.55571
1.56782
1.57979
1.59137
1.6024
1.61272
1.62204
1.63009
1.63671
1.64165
1.64459
1.64529
1.64346
1.63891
1.63133
1.62037
1.60583
1.58758
1.56524
1.53848
1.5073
1.47157
1.43091
1.38522
1.33458
1.27897
1.21819
1.15226
1.08153
1.00602
0.925813
0.841281
0.75268
0.660334
0.564711
0.466131
0.365095
0.262193
0.157911
0.0527364
14.1409
14.1193
14.0763
14.0122
13.9274
13.8225
13.6984
13.5557
13.3954
13.2186
13.0264
12.8199
12.6005
12.3693
12.1276
11.8766
11.6177
11.352
11.0808
10.8053
10.5265
10.2454
9.96323
9.68077
9.39889
9.11846
8.84014
8.56463
8.29255
8.02444
7.76078
7.50199
7.24844
7.00043
6.75823
6.52207
6.29211
6.06848
5.8513
5.64061
5.43649
5.23895
5.04796
4.86351
4.68555
4.51399
4.34882
4.18987
4.03712
3.89036
3.74957
3.61455
3.48526
3.36155
3.24329
3.13038
3.02262
2.91999
2.82223
2.72933
2.64103
2.55732
2.478
2.40302
2.33221
2.26549
2.20273
2.14379
2.08869
2.03719
1.98927
1.94472
1.90357
1.86563
1.83091
1.79924
1.77053
1.74474
1.72175
1.70155
1.68397
1.66891
1.65633
1.64614
1.63825
1.63251
1.62888
1.62729
1.62761
1.62976
1.63359
1.63907
1.64605
1.65438
1.66395
1.67462
1.68621
1.6986
1.7116
1.72503
1.73872
1.75244
1.76601
1.77924
1.79182
1.80356
1.81424
1.82357
1.83127
1.83703
1.84057
1.84171
1.84005
1.83517
1.8269
1.81509
1.79922
1.77888
1.75409
1.72466
1.69002
1.65001
1.60475
1.55397
1.49737
1.43509
1.36714
1.29344
1.21421
1.12956
1.03969
0.944744
0.845411
0.741817
0.634343
0.523632
0.410235
0.294626
0.177399
0.0592329
15.6561
15.6321
15.5842
15.5127
15.4183
15.3015
15.1633
15.0044
14.826
14.6292
14.4153
14.1856
13.9415
13.6844
13.4157
13.1368
12.8491
12.554
12.2528
11.9468
11.6374
11.3255
11.0124
10.6992
10.3866
10.0757
9.76729
9.46201
9.16062
8.86369
8.57174
8.28524
8.00461
7.73016
7.46217
7.20092
6.94657
6.69926
6.45912
6.22621
6.00057
5.78224
5.57118
5.36736
5.17075
4.98123
4.79877
4.62322
4.4545
4.29244
4.13695
3.98788
3.84512
3.70856
3.57801
3.45339
3.33446
3.22118
3.1133
3.01076
2.91332
2.82096
2.73342
2.65071
2.57261
2.49897
2.42975
2.36476
2.30398
2.24718
2.19435
2.14524
2.09985
2.05805
2.01977
1.98488
1.95324
1.92486
1.89957
1.87734
1.858
1.84147
1.8277
1.81653
1.80791
1.80171
1.79783
1.79617
1.79665
1.79918
1.80359
1.80975
1.81762
1.82705
1.8378
1.84972
1.86272
1.87668
1.89129
1.90628
1.92162
1.93715
1.95245
1.96724
1.98144
1.99484
2.007
2.01754
2.02634
2.0332
2.03759
2.03903
2.03746
2.03267
2.02398
2.01104
1.99382
1.97189
1.94478
1.91238
1.87439
1.83046
1.78055
1.72454
1.66209
1.59316
1.51797
1.43657
1.34875
1.25473
1.15506
1.04998
0.939629
0.824455
0.705081
0.582166
0.456125
0.327525
0.197197
0.0658659
17.1795
17.153
17.1
17.0211
16.9168
16.7879
16.6352
16.4598
16.2628
16.0456
15.8096
15.5562
15.287
15.0035
14.7073
14.4
14.083
13.758
13.4264
13.0896
12.7491
12.406
12.0617
11.7173
11.3738
11.0322
10.6933
10.3581
10.0272
9.70124
9.38086
9.06652
8.75867
8.45768
8.16383
7.87741
7.59862
7.3276
7.06448
6.80933
6.56218
6.32306
6.09195
5.86878
5.65351
5.44607
5.24635
5.05424
4.8696
4.69228
4.52215
4.35907
4.2029
4.05352
3.91074
3.77443
3.6444
3.52052
3.40257
3.29046
3.18391
3.08293
2.98726
2.89683
2.81146
2.731
2.65534
2.5843
2.51791
2.45585
2.39812
2.34449
2.29493
2.24929
2.20747
2.1694
2.1349
2.10394
2.07635
2.05214
2.0311
2.01311
1.99813
1.98606
1.97679
1.97009
1.96596
1.96435
1.96508
1.96794
1.97289
1.97991
1.98877
1.9992
2.01112
2.0245
2.03906
2.05447
2.07063
2.08749
2.10469
2.12184
2.13883
2.15553
2.17156
2.18648
2.20005
2.21218
2.22239
2.23012
2.23526
2.23751
2.23628
2.23131
2.22228
2.20862
2.19011
2.16656
2.13733
2.10199
2.06064
2.01306
1.95862
1.89709
1.82877
1.7536
1.67119
1.58156
1.48506
1.38215
1.27262
1.15681
1.03524
0.908581
0.777253
0.641739
0.502717
0.361022
0.217441
0.0726441
18.712
18.6828
18.6248
18.5382
18.4238
18.2823
18.1148
17.9224
17.7065
17.4685
17.2098
16.9322
16.6374
16.327
16.0027
15.6664
15.3196
14.9642
14.6017
14.2336
13.8616
13.487
13.111
12.7351
12.3603
11.9876
11.6182
11.2527
10.892
10.5369
10.1879
9.84559
9.51039
9.18275
8.86296
8.55131
8.24803
7.95327
7.66714
7.38972
7.12107
6.86115
6.60999
6.3675
6.13362
5.90827
5.69135
5.4827
5.2822
5.08965
4.90494
4.7279
4.55839
4.39624
4.24129
4.09336
3.95225
3.81785
3.68986
3.56821
3.45265
3.34307
3.23931
3.14123
3.04863
2.96136
2.87934
2.80232
2.73032
2.66306
2.60049
2.54238
2.48865
2.43924
2.39393
2.3527
2.31532
2.28184
2.25206
2.22585
2.20308
2.18372
2.16766
2.15465
2.14466
2.13761
2.13336
2.13173
2.13261
2.136
2.14169
2.14944
2.15919
2.17084
2.18418
2.19888
2.21485
2.23203
2.25002
2.26855
2.2875
2.3066
2.32558
2.34406
2.36179
2.37855
2.39386
2.40745
2.41905
2.42798
2.43402
2.4371
2.43644
2.43135
2.42195
2.40796
2.38843
2.36294
2.33156
2.29395
2.24943
2.19766
2.13865
2.07229
1.99825
1.91626
1.82651
1.72908
1.62408
1.51171
1.39202
1.26549
1.13281
0.994439
0.85073
0.702353
0.550266
0.395307
0.23812
0.0795238
20.2544
20.2226
20.1592
20.0647
19.9399
19.7856
19.6029
19.3931
19.1578
18.8983
18.6165
18.3141
17.993
17.6551
17.3022
16.9363
16.5593
16.1729
15.7789
15.3791
14.975
14.5683
14.1603
13.7525
13.346
12.942
12.5416
12.1456
11.755
11.3705
10.9927
10.6222
10.2596
9.90515
9.55932
9.22238
8.89455
8.57599
8.26684
7.96713
7.67696
7.39627
7.12507
6.86327
6.61083
6.3676
6.13352
5.90837
5.69206
5.48434
5.28512
5.09417
4.91137
4.73653
4.56943
4.40997
4.25782
4.11294
3.975
3.84387
3.71933
3.60125
3.48944
3.38373
3.284
3.18997
3.1016
3.01867
2.94114
2.8687
2.80129
2.73877
2.68096
2.62777
2.57898
2.53466
2.49452
2.45851
2.42647
2.39836
2.37403
2.35324
2.336
2.32219
2.31166
2.30419
2.2997
2.29823
2.29949
2.30329
2.30958
2.31827
2.32918
2.34196
2.35655
2.37282
2.39045
2.4093
2.42905
2.44946
2.47036
2.49143
2.51238
2.53281
2.55239
2.57109
2.58836
2.60341
2.61629
2.62689
2.63425
2.6378
2.63756
2.63314
2.62375
2.60886
2.58827
2.56162
2.52835
2.48801
2.44028
2.38485
2.32151
2.25008
2.17014
2.08152
1.98458
1.8793
1.76557
1.64344
1.51362
1.37656
1.23251
1.08192
0.925568
0.764328
0.599008
0.430344
0.259151
0.0865178
21.8076
21.773
21.7042
21.6016
21.466
21.2985
21.1002
20.8726
20.6172
20.3358
20.0302
19.7024
19.3544
18.9883
18.6062
18.2101
17.8021
17.3841
16.9581
16.5259
16.0894
15.6501
15.2096
14.7695
14.3309
13.8952
13.4635
13.0368
12.6159
12.2017
11.795
11.3962
11.0059
10.6246
10.2527
9.89035
9.53791
9.19552
8.86331
8.54132
8.22962
7.92816
7.63696
7.35587
7.0849
6.82383
6.57263
6.33104
6.09896
5.87614
5.66244
5.45769
5.26163
5.07419
4.89501
4.72404
4.56096
4.40564
4.2578
4.11729
3.98382
3.85727
3.73751
3.62424
3.51738
3.41666
3.32204
3.23322
3.15014
3.07262
3.00048
2.93354
2.87163
2.81477
2.76262
2.71518
2.67223
2.6338
2.59967
2.5696
2.54361
2.52155
2.50332
2.48864
2.47746
2.46972
2.46519
2.46381
2.46536
2.46973
2.47682
2.4864
2.4984
2.51245
2.5284
2.5463
2.56569
2.58621
2.60775
2.63025
2.65333
2.67629
2.69907
2.72183
2.74374
2.76408
2.78301
2.80026
2.81494
2.82667
2.83523
2.84004
2.84056
2.83644
2.82706
2.8118
2.79041
2.76256
2.72744
2.6845
2.63376
2.57491
2.50726
2.43051
2.34471
2.24986
2.14571
2.03215
1.90952
1.778
1.63806
1.49
1.33416
1.17124
1.00223
0.827884
0.648854
0.466054
0.280618
0.0937071
23.3725
23.3351
23.2607
23.1497
23.0031
22.8219
22.6075
22.3614
22.0854
21.7814
21.4514
21.0975
20.722
20.327
19.9149
19.4879
19.0483
18.598
18.1394
17.6743
17.2046
16.7323
16.2588
15.7859
15.3149
14.8471
14.3837
13.9259
13.4745
13.0305
12.5945
12.1672
11.7492
11.3409
10.9427
10.555
10.1779
9.81159
9.45629
9.112
8.77879
8.45657
8.14539
7.84505
7.55558
7.27674
7.00845
6.75048
6.50268
6.26483
6.03672
5.81822
5.60901
5.40899
5.21785
5.03544
4.86147
4.69582
4.53812
4.38825
4.24598
4.11103
3.98332
3.86257
3.74869
3.6413
3.54042
3.44583
3.35734
3.27472
3.19782
3.1266
3.06072
3.00011
2.94459
2.89416
2.84855
2.80762
2.77134
2.73947
2.71196
2.68857
2.66929
2.65389
2.64215
2.63415
2.62961
2.62837
2.63025
2.63526
2.64327
2.65376
2.66674
2.68227
2.69989
2.71925
2.7402
2.76277
2.78654
2.81087
2.83578
2.86121
2.88641
2.91104
2.93502
2.95772
2.9787
2.9978
3.01434
3.02764
3.03756
3.04372
3.04522
3.04141
3.03216
3.01699
2.99503
2.96575
2.92886
2.88391
2.83036
2.76777
2.69579
2.6141
2.52265
2.42137
2.30982
2.1881
2.05663
1.91567
1.76525
1.6058
1.43808
1.26288
1.08093
0.89292
0.69975
0.502613
0.302718
0.101135
24.9502
24.9099
24.8296
24.7099
24.5519
24.3566
24.1256
23.8605
23.5633
23.2359
22.8807
22.5
22.0961
21.6715
21.2287
20.7701
20.298
19.8149
19.3229
18.8242
18.3209
17.8148
17.3079
16.8016
16.2977
15.7974
15.302
14.8128
14.3306
13.8565
13.3911
12.9352
12.4892
12.0538
11.6293
11.2159
10.8141
10.4239
10.0455
9.67893
9.3242
8.98124
8.65009
8.33057
8.02262
7.72607
7.44075
7.16647
6.90301
6.6502
6.40777
6.17555
5.9533
5.74078
5.53772
5.34397
5.15918
4.98322
4.8158
4.65665
4.50556
4.36233
4.22678
4.09856
3.97766
3.86378
3.75677
3.65635
3.56245
3.47488
3.39334
3.31776
3.24792
3.18375
3.12494
3.07146
3.02321
2.97993
2.94154
2.90785
2.87889
2.85427
2.83389
2.81782
2.80572
2.7974
2.79273
2.79181
2.79435
2.79985
2.8085
2.82025
2.83464
2.85138
2.87037
2.89162
2.91461
2.93892
2.96464
2.99134
3.01847
3.04606
3.0737
3.10063
3.12673
3.15187
3.17523
3.19615
3.21451
3.22992
3.24154
3.24878
3.25129
3.24845
3.23962
3.22433
3.20188
3.1716
3.13321
3.08627
3.02993
2.96372
2.88761
2.80123
2.70413
2.59616
2.47724
2.34758
2.20722
2.05635
1.89523
1.72444
1.5448
1.35697
1.16155
0.959473
0.751985
0.540302
0.325523
0.108759
26.5416
26.4982
26.4119
26.2832
26.1133
25.9035
25.6552
25.3705
25.0513
24.6999
24.3188
23.9104
23.4773
23.0223
22.5479
22.0568
21.5516
21.0347
20.5086
19.9757
19.438
18.8977
18.3566
17.8166
17.2792
16.746
16.2183
15.6973
15.184
14.6795
14.1845
13.6996
13.2256
12.7629
12.312
11.873
11.4464
11.0323
10.6307
10.2418
9.86556
9.50191
9.15081
8.81214
8.48579
8.17157
7.8693
7.57877
7.29974
7.03201
6.77535
6.52951
6.29425
6.06935
5.85444
5.6494
5.45392
5.26773
5.0906
4.92228
4.76252
4.61099
4.46765
4.33215
4.20432
4.08386
3.97077
3.86473
3.76548
3.6729
3.58679
3.50703
3.43324
3.36546
3.30349
3.24706
3.19611
3.15053
3.11023
3.07474
3.04414
3.01844
2.99729
2.98041
2.9677
2.95936
2.95495
2.95409
2.95698
2.96342
2.97308
2.98578
3.00139
3.01974
3.04041
3.06332
3.08834
3.11474
3.14243
3.1715
3.20122
3.23097
3.26086
3.29054
3.31922
3.3465
3.37216
3.39552
3.41603
3.43337
3.4468
3.45552
3.45927
3.45756
3.44934
3.43399
3.41124
3.38039
3.34067
3.29159
3.2326
3.16322
3.08315
2.99191
2.88913
2.77462
2.64847
2.51074
2.36128
2.20033
2.02851
1.84636
1.65445
1.45343
1.24419
1.02793
0.805891
0.579181
0.348941
0.11654
28.1477
28.1012
28.0086
27.8706
27.6884
27.4634
27.1973
26.8922
26.5503
26.174
25.766
25.3291
24.866
24.3796
23.8728
23.3483
22.8091
22.2577
21.6968
21.1288
20.556
19.9808
19.4051
18.8307
18.2594
17.6928
17.1323
16.5791
16.0345
15.4993
14.9743
14.4604
13.9582
13.4681
12.9906
12.5259
12.0745
11.6363
11.2116
10.8004
10.4026
10.0183
9.6473
9.28952
8.94482
8.613
8.29385
7.98713
7.69263
7.41007
7.13922
6.87989
6.63167
6.39445
6.16783
5.95158
5.74544
5.54918
5.36245
5.18496
5.01661
4.85698
4.70588
4.56303
4.4284
4.30159
4.1824
4.07069
3.96625
3.8688
3.77807
3.69414
3.61663
3.54526
3.47999
3.42076
3.3674
3.31941
3.27696
3.23996
3.20808
3.18107
3.15889
3.14156
3.12859
3.11993
3.11562
3.11523
3.11863
3.12579
3.13652
3.15043
3.16725
3.18718
3.20982
3.23447
3.26124
3.29006
3.3202
3.35137
3.38348
3.41599
3.44842
3.48061
3.51199
3.5418
3.56987
3.59585
3.61878
3.63807
3.65343
3.66413
3.66939
3.66868
3.66123
3.64634
3.62353
3.59212
3.55121
3.50024
3.43884
3.36648
3.28246
3.18634
3.078
2.95719
2.8238
2.67774
2.51907
2.34814
2.1655
1.97162
1.767
1.55251
1.32932
1.09862
0.861496
0.619127
0.372932
0.12452
29.7697
29.7198
29.6207
29.473
29.278
29.0373
28.7527
28.4264
28.0609
27.6589
27.2232
26.7567
26.2626
25.7438
25.2036
24.6449
24.0707
23.4839
22.8873
22.2835
21.6749
21.0641
20.453
19.8437
19.238
18.6375
18.0438
17.4581
16.8817
16.3155
15.7605
15.2173
14.6866
14.169
13.6648
13.1744
12.698
12.2358
11.788
11.3544
10.9351
10.5301
10.1393
9.76244
9.39946
9.0501
8.71415
8.39134
8.08141
7.78417
7.4992
7.22644
6.96543
6.71595
6.47766
6.25037
6.03366
5.82731
5.63113
5.44465
5.26769
5.09993
4.94129
4.79128
4.64978
4.51663
4.39159
4.27428
4.16452
4.06233
3.96725
3.87907
3.79768
3.723
3.6547
3.59247
3.53651
3.48649
3.44215
3.40335
3.37008
3.34213
3.31908
3.30107
3.28791
3.27919
3.27488
3.27496
3.27916
3.28707
3.29863
3.31396
3.33244
3.35377
3.3781
3.40495
3.43382
3.46476
3.49742
3.53108
3.56559
3.60093
3.63625
3.67095
3.70499
3.73781
3.76862
3.79706
3.82254
3.84427
3.86179
3.87452
3.8815
3.88202
3.87561
3.86153
3.83886
3.8069
3.76505
3.71261
3.64899
3.5736
3.48572
3.38498
3.27126
3.14414
3.00339
2.84894
2.68108
2.5001
2.30636
2.10034
1.88277
1.65468
1.41725
1.17154
0.91869
0.660166
0.397647
0.132794
31.4085
31.3553
31.2493
31.0916
30.8832
30.6261
30.3222
29.974
29.584
29.1552
28.6908
28.1938
27.6676
27.1154
26.5407
25.9467
25.3366
24.7134
24.0802
23.4398
22.7947
22.1474
21.5003
20.8555
20.2147
19.5799
18.9525
18.3339
17.7254
17.128
16.5425
15.9699
15.4106
14.8652
14.3343
13.818
13.3167
12.8305
12.3594
11.9035
11.4628
11.0372
10.6265
10.2307
9.84946
9.48264
9.12995
8.79117
8.46591
8.15403
7.85513
7.56898
7.29524
7.03368
6.7838
6.54547
6.31838
6.1021
5.8964
5.70099
5.51568
5.3399
5.17363
5.01658
4.86847
4.72894
4.59793
4.4753
4.36048
4.25335
4.15383
4.06177
3.97668
3.89844
3.82709
3.76224
3.70374
3.65148
3.60537
3.56503
3.53029
3.50133
3.4777
3.45904
3.44547
3.43689
3.43295
3.43332
3.43811
3.44711
3.45983
3.4763
3.49642
3.51955
3.54557
3.57454
3.60586
3.63896
3.67398
3.71051
3.7478
3.78574
3.82398
3.86168
3.89858
3.93439
3.96818
3.99929
4.02747
4.052
4.07193
4.0867
4.09564
4.09787
4.09275
4.07954
4.05722
4.02508
3.98258
3.92888
3.86315
3.78482
3.69332
3.58824
3.46916
3.33564
3.1875
3.02477
2.84767
2.65639
2.45125
2.23289
2.00222
1.76024
1.50801
1.24665
0.977601
0.702575
0.423302
0.141412
33.0655
33.0087
32.8956
32.7273
32.505
32.2308
31.9069
31.5357
31.1203
30.6638
30.1694
29.6408
29.0814
28.4947
27.8844
27.254
26.6069
25.9464
25.2756
24.5976
23.9151
23.2307
22.5469
21.8658
21.1895
20.5198
19.8583
19.2064
18.5654
17.9364
17.3203
16.7179
16.1298
15.5566
14.9988
14.4566
13.9303
13.4199
12.9257
12.4475
11.9854
11.5391
11.1087
10.6939
10.2946
9.91038
9.54104
9.18635
8.84591
8.51947
8.2067
7.90735
7.62094
7.34731
7.08607
6.83681
6.59929
6.37323
6.15828
5.95396
5.76023
5.57668
5.40297
5.23874
5.08403
4.93851
4.80167
4.67344
4.55361
4.44196
4.33805
4.24189
4.15326
4.07171
3.99722
3.92972
3.86896
3.81451
3.76642
3.72472
3.68886
3.65871
3.63429
3.61535
3.60159
3.59293
3.58933
3.59031
3.59571
3.60571
3.61984
3.63759
3.6591
3.68427
3.71239
3.74328
3.77693
3.81269
3.85021
3.88949
3.92981
3.97056
4.01172
4.05274
4.09278
4.13152
4.16843
4.20268
4.2338
4.26116
4.28375
4.3009
4.31207
4.31631
4.3127
4.3005
4.27884
4.24692
4.20399
4.14912
4.0815
4.00055
3.90568
3.79633
3.67188
3.532
3.37657
3.2056
3.01911
2.81729
2.60058
2.36975
2.12567
1.86926
1.60165
1.3242
1.03862
0.746641
0.449976
0.150348
34.7417
34.6812
34.5607
34.3813
34.1446
33.8525
33.5076
33.1125
32.6706
32.1851
31.6598
31.0982
30.5044
29.882
29.235
28.567
27.8818
27.1829
26.4735
25.757
25.0362
24.3138
23.5926
22.8746
22.1621
21.4569
20.7608
20.0751
19.4013
18.7404
18.0933
17.461
16.844
16.2428
15.658
15.0897
14.5384
14.0039
13.4865
12.986
12.5025
12.0357
11.5856
11.152
10.7345
10.333
9.94717
9.57664
9.22111
8.88028
8.5537
8.24122
7.94236
7.65675
7.38413
7.12417
6.87644
6.64054
6.41639
6.20346
6.00139
5.80991
5.62894
5.45794
5.29659
5.14485
5.00242
4.86893
4.744
4.62775
4.5197
4.41954
4.32721
4.24255
4.1652
4.09489
4.03174
3.97545
3.9256
3.88226
3.84529
3.8143
3.78909
3.76975
3.75602
3.74739
3.74396
3.7457
3.75207
3.76289
3.77826
3.79771
3.82082
3.84779
3.87817
3.91125
3.94717
3.98574
4.0261
4.06803
4.1114
4.15542
4.19968
4.24396
4.28738
4.32934
4.36954
4.40721
4.4415
4.47179
4.49734
4.51729
4.53094
4.53734
4.53552
4.52468
4.50401
4.47257
4.42939
4.37357
4.30439
4.22112
4.12302
4.00943
3.87973
3.73367
3.57105
3.39174
3.1957
2.98319
2.75479
2.51122
2.25326
1.98192
1.69853
1.40465
1.10205
0.792442
0.477617
0.159565
36.4386
36.3742
36.2459
36.0549
35.8029
35.4921
35.1253
34.7053
34.2357
33.7201
33.1624
32.5667
31.9371
31.2777
30.5927
29.8859
29.1614
28.4229
27.6739
26.9178
26.1578
25.3966
24.6371
23.8815
23.1321
22.3909
21.6597
20.9398
20.2328
19.5396
18.8614
18.1989
17.5527
16.9234
16.3115
15.7171
15.1407
14.5821
14.0415
13.5187
13.0138
12.5266
12.0569
11.6045
11.1691
10.7504
10.3481
9.96186
9.59129
9.23618
8.896
8.57045
8.25918
7.96186
7.67799
7.40727
7.1495
6.90404
6.67064
6.44903
6.23897
6.03984
5.85143
5.67363
5.50599
5.34819
5.20001
5.0614
4.93165
4.8107
4.69846
4.59462
4.49877
4.41075
4.3306
4.25784
4.19228
4.134
4.08262
4.0378
3.99953
3.96782
3.94213
3.92228
3.9084
3.90014
3.89709
3.89935
3.90676
3.91874
3.93525
3.95639
3.98148
4.01019
4.04269
4.07838
4.11678
4.15798
4.20136
4.24625
4.29269
4.34017
4.3878
4.43535
4.48233
4.52792
4.57161
4.61279
4.65051
4.68408
4.71285
4.73591
4.75227
4.76105
4.76138
4.75232
4.7329
4.70214
4.659
4.6026
4.53217
4.44678
4.34558
4.22788
4.09318
3.94109
3.77127
3.5835
3.37781
3.15453
2.91423
2.65756
2.3853
2.09865
1.79911
1.48831
1.16797
0.839916
0.506198
0.169085
38.1574
38.0889
37.9523
37.7492
37.4813
37.1509
36.761
36.315
35.8164
35.2694
34.678
34.0468
33.38
32.6822
31.9577
31.2108
30.4457
29.6664
28.8767
28.08
27.2797
26.4788
25.6802
24.8863
24.0994
23.3216
22.5547
21.8002
21.0595
20.3339
19.6241
18.9312
18.2557
17.5981
16.959
16.3385
15.7369
15.1541
14.5903
14.0454
13.5192
13.0116
12.5224
12.0512
11.5979
11.1621
10.7435
10.3417
9.9563
9.58696
9.23329
8.89491
8.57131
8.26226
7.96739
7.68611
7.4182
7.1633
6.92105
6.69084
6.47262
6.26603
6.07052
5.88586
5.71187
5.54835
5.39458
5.25063
5.11618
4.9909
4.87445
4.76679
4.66763
4.57645
4.49336
4.41823
4.35058
4.29019
4.23713
4.19117
4.15181
4.11913
4.093
4.07296
4.05891
4.05092
4.04854
4.05138
4.05962
4.07304
4.091
4.11358
4.14068
4.17153
4.20613
4.24444
4.28562
4.32946
4.37588
4.4241
4.47378
4.52466
4.57591
4.62703
4.67773
4.72719
4.77461
4.81943
4.86089
4.89812
4.93037
4.95671
4.97609
4.98766
4.99051
4.98354
4.96564
4.93585
4.89314
4.83653
4.76507
4.67773
4.57367
4.45217
4.31266
4.15459
3.97752
3.78125
3.56589
3.33175
3.07928
2.80913
2.52222
2.21989
1.90368
1.57524
1.23637
0.889112
0.535844
0.178989
39.8995
39.8266
39.6815
39.4656
39.1809
38.8299
38.4159
37.9425
37.4136
36.8337
36.2072
35.5389
34.8335
34.0957
33.3304
32.5419
31.7349
30.9135
30.0818
29.2434
28.4018
27.5603
26.7217
25.8887
25.0636
24.2486
23.4455
22.6559
21.8812
21.1226
20.3812
19.6576
18.9526
18.2666
17.6002
16.9535
16.3266
15.7197
15.1328
14.5657
14.0183
13.4903
12.9816
12.4919
12.0208
11.5681
11.1332
10.716
10.3159
9.93249
9.56536
9.21423
8.87857
8.5579
8.25199
7.96041
7.68267
7.41827
7.16713
6.92867
6.70244
6.48825
6.28581
6.09467
5.91431
5.74489
5.58584
5.4368
5.29753
5.16795
5.04759
4.93607
4.83352
4.73948
4.65365
4.57592
4.50622
4.4441
4.38932
4.34208
4.30187
4.26835
4.24162
4.22154
4.20763
4.19974
4.19795
4.20175
4.21087
4.22558
4.24526
4.26939
4.29836
4.33163
4.36857