/*--------------------------------*- C++ -*----------------------------------*\
| =========                 |                                                 |
| \\      /  F ield         | OpenFOAM: The Open Source CFD Toolbox           |
|  \\    /   O peration     | Version:  2312                                  |
|   \\  /    A nd           | Website:  www.openfoam.com                      |
|    \\/     M anipulation  |                                                 |
\*---------------------------------------------------------------------------*/
FoamFile
{
    version     2.0;
    format      ascii;
    arch        "LSB;label=32;scalar=64";
    class       volVectorField;
    location    "2.4";
    object      flux;
}
// * * * * * * * * * * * * * * * * * * * * * * * * * * * * * * * * * * * * * //

dimensions      [0 1 -1 1 0 0 0];

internalField   nonuniform List<vector> 
45
(
(-186.5 0 0)
(-186.5 0 0)
(-186.5 0 0)
(-186.5 0 0)
(-186.5 0 0)
(-186.5 0 0)
(-186.5 0 0)
(-186.5 0 0)
(-186.5 0 0)
(-186.5 0 0)
(-186.5 0 0)
(-186.5 0 0)
(-186.5 0 0)
(-186.5 0 0)
(-186.5 0 0)
(-186.5 0 0)
(-186.5 0 0)
(-186.5 0 0)
(-186.5 0 0)
(-186.5 0 0)
(-186.5 0 0)
(-186.5 0 0)
(-186.5 0 0)
(-186.5 0 0)
(-186.5 0 0)
(-186.5 0 0)
(-186.5 0 0)
(-186.5 0 0)
(-186.5 0 0)
(-186.5 0 0)
(-186.5 0 0)
(-186.5 0 0)
(-186.5 0 0)
(-186.5 0 0)
(-186.5 0 0)
(-186.5 0 0)
(-186.5 0 0)
(-186.5 0 0)
(-186.5 0 0)
(-186.5 0 0)
(-186.5 0 0)
(-186.5 0 0)
(-186.5 0 0)
(-186.5 0 0)
(-186.5 0 0)
)
;

boundaryField
{
    inlet
    {
        type            calculated;
        value           uniform (-186.5 0 0);
    }
    outlet
    {
        type            calculated;
        value           uniform (-186.5 0 0);
    }
    emptyWalls
    {
        type            empty;
    }
}


// ************************************************************************* //
