/*--------------------------------*- C++ -*----------------------------------*\
| =========                 |                                                 |
| \\      /  F ield         | OpenFOAM: The Open Source CFD Toolbox           |
|  \\    /   O peration     | Version:  2312                                  |
|   \\  /    A nd           | Website:  www.openfoam.com                      |
|    \\/     M anipulation  |                                                 |
\*---------------------------------------------------------------------------*/
FoamFile
{
    version     2.0;
    format      ascii;
    arch        "LSB;label=32;scalar=64";
    class       volScalarField;
    location    "0.1";
    object      gradTx;
}
// * * * * * * * * * * * * * * * * * * * * * * * * * * * * * * * * * * * * * //

dimensions      [0 -1 0 1 0 0 0];

internalField   nonuniform List<scalar> 
33600
(
-1.26599
-3.7966
-6.32147
-8.8368
-11.3394
-13.8254
-16.2913
-18.734
-21.1501
-23.5368
-25.8913
-28.2108
-30.4931
-32.7357
-34.9368
-37.0945
-39.2074
-41.274
-43.2932
-45.2642
-47.1862
-49.0586
-50.8811
-52.6534
-54.3755
-56.0476
-57.6699
-59.243
-60.7671
-62.243
-63.6715
-65.053
-66.3887
-67.6794
-68.9261
-70.1298
-71.2917
-72.4127
-73.494
-74.5368
-75.5422
-76.5114
-77.4455
-78.3458
-79.2132
-80.0491
-80.8546
-81.6307
-82.3786
-83.0993
-83.7939
-84.4636
-85.1093
-85.7322
-86.3331
-86.9131
-87.4731
-88.0139
-88.5366
-89.0418
-89.5304
-90.0035
-90.4617
-90.906
-91.3371
-91.7558
-92.1626
-92.5584
-92.9438
-93.3194
-93.6858
-94.0439
-94.394
-94.737
-95.0734
-95.4037
-95.7285
-96.0484
-96.3638
-96.6753
-96.9832
-97.288
-97.5901
-97.8902
-98.1885
-98.4855
-98.7815
-99.077
-99.3724
-99.6681
-99.9642
-100.261
-100.559
-100.858
-101.158
-101.46
-101.764
-102.07
-102.378
-102.689
-103.001
-103.316
-103.633
-103.952
-104.274
-104.597
-104.923
-105.249
-105.578
-105.907
-106.236
-106.566
-106.895
-107.224
-107.551
-107.876
-108.198
-108.517
-108.831
-109.141
-109.444
-109.741
-110.03
-110.31
-110.58
-110.839
-111.087
-111.322
-111.543
-111.75
-111.941
-112.116
-112.274
-112.413
-112.534
-112.636
-112.718
-112.78
-112.821
-112.842
-1.26656
-3.79844
-6.32467
-8.84123
-11.345
-13.8322
-16.2993
-18.743
-21.1601
-23.5478
-25.9031
-28.2235
-30.5065
-32.7499
-34.9516
-37.1098
-39.2231
-41.2901
-43.3097
-45.2809
-47.2031
-49.0756
-50.8981
-52.6704
-54.3925
-56.0645
-57.6867
-59.2596
-60.7835
-62.2592
-63.6874
-65.0687
-66.404
-67.6944
-68.9407
-70.1441
-71.3055
-72.4262
-73.5071
-74.5495
-75.5545
-76.5233
-77.4571
-78.3569
-79.224
-80.0595
-80.8646
-81.6403
-82.3878
-83.1082
-83.8024
-84.4717
-85.1171
-85.7396
-86.3403
-86.9199
-87.4796
-88.0201
-88.5425
-89.0474
-89.5357
-90.0085
-90.4664
-90.9105
-91.3413
-91.7598
-92.1664
-92.5619
-92.9471
-93.3225
-93.6887
-94.0465
-94.3965
-94.7392
-95.0754
-95.4055
-95.7302
-96.0499
-96.3652
-96.6765
-96.9842
-97.2889
-97.5909
-97.8908
-98.1889
-98.4858
-98.7817
-99.0771
-99.3724
-99.6679
-99.9639
-100.261
-100.558
-100.857
-101.158
-101.46
-101.764
-102.069
-102.378
-102.688
-103
-103.315
-103.632
-103.952
-104.273
-104.597
-104.922
-105.249
-105.577
-105.906
-106.236
-106.566
-106.896
-107.224
-107.552
-107.877
-108.199
-108.518
-108.833
-109.143
-109.447
-109.743
-110.033
-110.313
-110.583
-110.843
-111.091
-111.327
-111.548
-111.755
-111.947
-112.122
-112.28
-112.42
-112.541
-112.643
-112.725
-112.787
-112.829
-112.849
-1.26783
-3.80223
-6.33102
-8.85009
-11.3563
-13.8458
-16.3151
-18.761
-21.1802
-23.5698
-25.9269
-28.249
-30.5335
-32.7782
-34.9811
-37.1404
-39.2546
-41.3224
-43.3426
-45.3143
-47.2369
-49.1096
-50.9322
-52.7045
-54.4266
-56.0984
-57.7203
-59.2929
-60.8164
-62.2916
-63.7192
-65.0999
-66.4346
-67.7243
-68.9699
-70.1726
-71.3333
-72.4532
-73.5334
-74.575
-75.5792
-76.5472
-77.4801
-78.3792
-79.2455
-80.0802
-80.8846
-81.6595
-82.4063
-83.1259
-83.8194
-84.488
-85.1328
-85.7546
-86.3546
-86.9336
-87.4926
-88.0325
-88.5543
-89.0586
-89.5464
-90.0186
-90.476
-90.9195
-91.3499
-91.7678
-92.1739
-92.569
-92.9537
-93.3287
-93.6945
-94.0518
-94.4013
-94.7437
-95.0796
-95.4093
-95.7336
-96.0529
-96.3679
-96.6788
-96.9863
-97.2906
-97.5923
-97.8919
-98.1898
-98.4864
-98.7821
-99.0772
-99.3723
-99.6676
-99.9634
-100.26
-100.557
-100.856
-101.156
-101.458
-101.762
-102.068
-102.376
-102.686
-102.999
-103.314
-103.631
-103.95
-104.272
-104.596
-104.921
-105.248
-105.577
-105.906
-106.236
-106.566
-106.896
-107.225
-107.553
-107.879
-108.202
-108.521
-108.837
-109.147
-109.451
-109.749
-110.039
-110.319
-110.591
-110.851
-111.1
-111.336
-111.558
-111.766
-111.958
-112.134
-112.292
-112.432
-112.554
-112.656
-112.739
-112.801
-112.843
-112.863
-1.26978
-3.80798
-6.34055
-8.86339
-11.3732
-13.8662
-16.339
-18.7881
-21.2104
-23.6029
-25.9627
-28.2872
-30.5739
-32.8207
-35.0254
-37.1863
-39.3019
-41.3708
-43.392
-45.3645
-47.2876
-49.1607
-50.9835
-52.7558
-54.4777
-56.1493
-57.7708
-59.3428
-60.8658
-62.3402
-63.767
-65.1468
-66.4805
-67.7692
-69.0138
-70.2154
-71.375
-72.4937
-73.5727
-74.6132
-75.6162
-76.583
-77.5147
-78.4126
-79.2777
-80.1113
-80.9145
-81.6883
-82.434
-83.1524
-83.8449
-84.5125
-85.1562
-85.777
-86.376
-86.954
-87.5121
-88.0511
-88.5719
-89.0754
-89.5623
-90.0337
-90.4903
-90.9331
-91.3626
-91.7798
-92.1852
-92.5796
-92.9636
-93.3379
-93.703
-94.0598
-94.4087
-94.7505
-95.0858
-95.4149
-95.7387
-96.0575
-96.372
-96.6824
-96.9894
-97.2932
-97.5945
-97.8937
-98.1911
-98.4873
-98.7826
-99.0774
-99.3722
-99.6672
-99.9626
-100.259
-100.556
-100.855
-101.155
-101.456
-101.76
-102.066
-102.374
-102.684
-102.996
-103.311
-103.629
-103.948
-104.27
-104.594
-104.919
-105.247
-105.576
-105.905
-106.236
-106.567
-106.897
-107.227
-107.555
-107.882
-108.205
-108.526
-108.842
-109.153
-109.458
-109.757
-110.047
-110.329
-110.602
-110.863
-111.113
-111.35
-111.573
-111.782
-111.975
-112.151
-112.31
-112.451
-112.574
-112.676
-112.759
-112.822
-112.864
-112.885
-1.27239
-3.81569
-6.3533
-8.88116
-11.3958
-13.8936
-16.3709
-18.8243
-21.2507
-23.647
-26.0104
-28.3383
-30.628
-32.8774
-35.0846
-37.2476
-39.3651
-41.4356
-43.458
-45.4315
-47.3553
-49.2289
-51.0519
-52.8242
-54.5459
-56.2172
-57.8381
-59.4094
-60.9316
-62.405
-63.8307
-65.2094
-66.5418
-67.8291
-69.0723
-70.2724
-71.4305
-72.5477
-73.6252
-74.6641
-75.6655
-76.6307
-77.5609
-78.4572
-79.3207
-80.1528
-80.9544
-81.7267
-82.4708
-83.1879
-83.8789
-84.545
-85.1874
-85.8068
-86.4045
-86.9812
-87.5381
-88.0759
-88.5955
-89.0977
-89.5835
-90.0538
-90.5094
-90.9511
-91.3796
-91.7958
-92.2002
-92.5937
-92.9768
-93.3502
-93.7145
-94.0704
-94.4185
-94.7595
-95.094
-95.4224
-95.7455
-96.0636
-96.3774
-96.6871
-96.9934
-97.2967
-97.5974
-97.896
-98.1929
-98.4886
-98.7834
-99.0777
-99.372
-99.6666
-99.9616
-100.257
-100.554
-100.853
-101.152
-101.454
-101.757
-102.063
-102.371
-102.681
-102.993
-103.308
-103.625
-103.945
-104.267
-104.591
-104.917
-105.245
-105.574
-105.905
-106.236
-106.567
-106.898
-107.229
-107.558
-107.885
-108.21
-108.532
-108.849
-109.161
-109.468
-109.767
-110.059
-110.343
-110.616
-110.879
-111.13
-111.369
-111.593
-111.803
-111.997
-112.175
-112.335
-112.477
-112.6
-112.703
-112.787
-112.85
-112.892
-112.913
-1.27566
-3.82536
-6.36931
-8.90344
-11.4242
-13.9279
-16.4108
-18.8697
-21.3013
-23.7024
-26.0703
-28.4023
-30.6958
-32.9486
-35.1588
-37.3245
-39.4442
-41.5166
-43.5407
-45.5154
-47.44
-49.3142
-51.1376
-52.9099
-54.6314
-56.3021
-57.9224
-59.4928
-61.0139
-62.4862
-63.9105
-65.2876
-66.6185
-67.9041
-69.1455
-70.3438
-71.5
-72.6153
-73.6908
-74.7277
-75.7272
-76.6904
-77.6186
-78.5128
-79.3744
-80.2045
-81.0043
-81.7747
-82.5169
-83.2321
-83.9214
-84.5857
-85.2264
-85.8441
-86.4401
-87.0153
-87.5705
-88.1068
-88.6249
-89.1257
-89.6101
-90.079
-90.5332
-90.9736
-91.4009
-91.8158
-92.219
-92.6114
-92.9933
-93.3656
-93.7288
-94.0836
-94.4308
-94.7708
-95.1043
-95.4318
-95.7539
-96.0712
-96.3841
-96.6931
-96.9985
-97.301
-97.601
-97.8989
-98.1951
-98.4901
-98.7843
-99.078
-99.3718
-99.6658
-99.9603
-100.256
-100.552
-100.85
-101.149
-101.451
-101.754
-102.059
-102.367
-102.677
-102.989
-103.304
-103.622
-103.941
-104.264
-104.588
-104.915
-105.243
-105.572
-105.903
-106.235
-106.567
-106.9
-107.231
-107.561
-107.89
-108.216
-108.539
-108.857
-109.171
-109.479
-109.781
-110.074
-110.359
-110.634
-110.899
-111.152
-111.392
-111.618
-111.829
-112.025
-112.204
-112.366
-112.509
-112.633
-112.737
-112.821
-112.885
-112.927
-112.949
-1.27958
-3.83702
-6.38861
-8.93029
-11.4584
-13.9692
-16.459
-18.9244
-21.3622
-23.7691
-26.1424
-28.4794
-30.7774
-33.0343
-35.2481
-37.417
-39.5395
-41.6142
-43.6401
-45.6163
-47.542
-49.4169
-51.2406
-53.0129
-54.7341
-56.4042
-58.0237
-59.593
-61.1128
-62.5836
-64.0062
-65.3816
-66.7105
-67.9941
-69.2334
-70.4295
-71.5834
-72.6964
-73.7695
-74.8041
-75.8012
-76.762
-77.6878
-78.5797
-79.4389
-80.2667
-81.0641
-81.8322
-82.5722
-83.2852
-83.9723
-84.6346
-85.2731
-85.8889
-86.4829
-87.0561
-87.6095
-88.1438
-88.6601
-89.1592
-89.6419
-90.1092
-90.5618
-91.0006
-91.4263
-91.8398
-92.2416
-92.6325
-93.0131
-93.384
-93.746
-94.0995
-94.4455
-94.7843
-95.1166
-95.443
-95.7641
-96.0803
-96.3922
-96.7001
-97.0046
-97.3062
-97.6053
-97.9023
-98.1977
-98.4919
-98.7854
-99.0784
-99.3714
-99.6648
-99.9587
-100.254
-100.55
-100.847
-101.146
-101.447
-101.75
-102.055
-102.362
-102.672
-102.984
-103.299
-103.617
-103.937
-104.259
-104.584
-104.911
-105.24
-105.57
-105.902
-106.235
-106.568
-106.901
-107.234
-107.565
-107.895
-108.223
-108.547
-108.868
-109.183
-109.493
-109.796
-110.092
-110.379
-110.656
-110.923
-111.178
-111.42
-111.648
-111.861
-112.059
-112.239
-112.402
-112.547
-112.672
-112.778
-112.863
-112.927
-112.97
-112.992
-1.28416
-3.85069
-6.41124
-8.96177
-11.4985
-14.0176
-16.5155
-18.9886
-21.4336
-23.8473
-26.2269
-28.5697
-30.873
-33.1347
-35.3527
-37.5253
-39.651
-41.7284
-43.7565
-45.7343
-47.6613
-49.5369
-51.361
-53.1334
-54.8541
-56.5236
-58.1421
-59.7101
-61.2284
-62.6974
-64.1181
-65.4913
-66.818
-68.0992
-69.336
-70.5295
-71.6807
-72.791
-73.8614
-74.8932
-75.8875
-76.8455
-77.7685
-78.6576
-79.5141
-80.3391
-81.1338
-81.8993
-82.6367
-83.3471
-84.0317
-84.6915
-85.3276
-85.941
-86.5327
-87.1037
-87.6548
-88.187
-88.7012
-89.1982
-89.679
-90.1443
-90.5951
-91.0321
-91.456
-91.8677
-92.2678
-92.6571
-93.0361
-93.4055
-93.7659
-94.1181
-94.4625
-94.8
-95.131
-95.4561
-95.7759
-96.0909
-96.4015
-96.7083
-97.0117
-97.3123
-97.6103
-97.9063
-98.2007
-98.494
-98.7866
-99.0788
-99.371
-99.6636
-99.9568
-100.251
-100.546
-100.843
-101.142
-101.442
-101.745
-102.049
-102.357
-102.666
-102.979
-103.294
-103.611
-103.932
-104.254
-104.58
-104.907
-105.237
-105.568
-105.9
-106.234
-106.568
-106.903
-107.237
-107.57
-107.902
-108.231
-108.557
-108.88
-109.197
-109.509
-109.815
-110.113
-110.402
-110.682
-110.951
-111.208
-111.453
-111.683
-111.899
-112.098
-112.281
-112.446
-112.592
-112.719
-112.825
-112.912
-112.977
-113.02
-113.042
-1.28942
-3.86639
-6.43727
-8.99795
-11.5446
-14.0733
-16.5804
-19.0623
-21.5156
-23.9371
-26.324
-28.6734
-30.9828
-33.2499
-35.4728
-37.6497
-39.7789
-41.8594
-43.8899
-45.8697
-47.7981
-49.6745
-51.499
-53.2714
-54.9916
-56.6603
-58.2776
-59.8442
-61.3607
-62.8277
-64.2461
-65.6169
-66.941
-68.2194
-69.4533
-70.6438
-71.792
-72.8992
-73.9665
-74.995
-75.9861
-76.9409
-77.8607
-78.7466
-79.6
-80.4219
-81.2135
-81.9759
-82.7103
-83.4178
-84.0995
-84.7565
-85.3899
-86.0005
-86.5896
-87.158
-87.7066
-88.2364
-88.7481
-89.2428
-89.7213
-90.1845
-90.6331
-91.068
-91.4899
-91.8996
-92.2978
-92.6852
-93.0624
-93.43
-93.7887
-94.1392
-94.482
-94.8179
-95.1474
-95.471
-95.7893
-96.1029
-96.4122
-96.7177
-97.0198
-97.3191
-97.6159
-97.9108
-98.2041
-98.4964
-98.788
-99.0792
-99.3705
-99.6622
-99.9546
-100.248
-100.543
-100.839
-101.137
-101.437
-101.739
-102.043
-102.35
-102.66
-102.972
-103.287
-103.605
-103.926
-104.249
-104.574
-104.902
-105.233
-105.565
-105.898
-106.233
-106.569
-106.905
-107.24
-107.575
-107.909
-108.24
-108.568
-108.893
-109.213
-109.528
-109.836
-110.137
-110.429
-110.711
-110.983
-111.243
-111.49
-111.723
-111.941
-112.143
-112.328
-112.495
-112.643
-112.772
-112.88
-112.967
-113.033
-113.077
-113.1
-1.29536
-3.88417
-6.46675
-9.03893
-11.5968
-14.1364
-16.6539
-19.1457
-21.6084
-24.0388
-26.4338
-28.7907
-31.1069
-33.3802
-35.6085
-37.7902
-39.9235
-42.0074
-44.0406
-46.0225
-47.9524
-49.8299
-51.6548
-53.427
-55.1468
-56.8145
-58.4305
-59.9953
-61.5098
-62.9745
-64.3904
-65.7584
-67.0795
-68.3548
-69.5854
-70.7726
-71.9173
-73.021
-74.0847
-75.1096
-76.0971
-77.0483
-77.9644
-78.8468
-79.6966
-80.5149
-81.3031
-82.0621
-82.7931
-83.4973
-84.1758
-84.8296
-85.4598
-86.0674
-86.6535
-87.219
-87.7648
-88.2918
-88.8008
-89.2929
-89.7689
-90.2296
-90.6758
-91.1083
-91.5279
-91.9354
-92.3314
-92.7167
-93.0919
-93.4575
-93.8143
-94.1629
-94.5039
-94.838
-95.1657
-95.4877
-95.8044
-96.1164
-96.4242
-96.7281
-97.0288
-97.3268
-97.6223
-97.9158
-98.2079
-98.499
-98.7895
-99.0796
-99.3698
-99.6606
-99.9521
-100.245
-100.539
-100.834
-101.131
-101.431
-101.732
-102.036
-102.343
-102.652
-102.965
-103.28
-103.598
-103.918
-104.242
-104.568
-104.897
-105.228
-105.561
-105.896
-106.232
-106.569
-106.907
-107.244
-107.581
-107.917
-108.25
-108.581
-108.908
-109.231
-109.548
-109.859
-110.163
-110.458
-110.744
-111.019
-111.282
-111.532
-111.768
-111.989
-112.194
-112.382
-112.551
-112.702
-112.832
-112.942
-113.031
-113.097
-113.142
-113.165
-1.30202
-3.90407
-6.49975
-9.0848
-11.6552
-14.2069
-16.7361
-19.239
-21.7122
-24.1524
-26.5565
-28.9218
-31.2457
-33.5258
-35.7602
-37.9471
-40.085
-42.1726
-44.2089
-46.1931
-48.1246
-50.0031
-51.8284
-53.6006
-55.3197
-56.9863
-58.6007
-60.1636
-61.6758
-63.1379
-64.5509
-65.9158
-67.2335
-68.5054
-69.7324
-70.9157
-72.0566
-73.1563
-74.216
-75.237
-76.2204
-77.1676
-78.0797
-78.958
-79.8039
-80.6183
-81.4026
-82.1577
-82.885
-83.5855
-84.2604
-84.9107
-85.5374
-86.1417
-86.7244
-87.2867
-87.8293
-88.3533
-88.8593
-89.3485
-89.8216
-90.2796
-90.7231
-91.153
-91.5701
-91.9751
-92.3688
-92.7517
-93.1246
-93.488
-93.8427
-94.1892
-94.5282
-94.8603
-95.1861
-95.5062
-95.8211
-96.1314
-96.4374
-96.7397
-97.0389
-97.3352
-97.6292
-97.9213
-98.2121
-98.5019
-98.791
-99.0799
-99.3691
-99.6587
-99.9492
-100.241
-100.534
-100.828
-101.125
-101.424
-101.725
-102.029
-102.335
-102.644
-102.956
-103.271
-103.589
-103.91
-104.234
-104.561
-104.891
-105.223
-105.557
-105.893
-106.23
-106.569
-106.908
-107.248
-107.587
-107.925
-108.261
-108.595
-108.925
-109.251
-109.571
-109.886
-110.193
-110.491
-110.78
-111.059
-111.326
-111.579
-111.819
-112.043
-112.251
-112.442
-112.614
-112.767
-112.899
-113.011
-113.101
-113.169
-113.215
-113.238
-1.3094
-3.92615
-6.53635
-9.13567
-11.72
-14.2851
-16.8272
-19.3424
-21.8273
-24.2783
-26.6925
-29.067
-31.3993
-33.6869
-35.928
-38.1207
-40.2635
-42.3552
-44.3948
-46.3815
-48.3149
-50.1944
-52.0201
-53.7921
-55.5105
-57.1758
-58.7885
-60.3492
-61.8588
-63.318
-64.7278
-66.0892
-67.4033
-68.6712
-69.8942
-71.0733
-72.21
-73.3053
-74.3606
-75.3771
-76.3561
-77.2988
-78.2065
-79.0804
-79.9218
-80.7319
-81.5119
-82.2629
-82.9861
-83.6825
-84.3534
-84.9998
-85.6227
-86.2232
-86.8024
-87.361
-87.9002
-88.4208
-88.9236
-89.4096
-89.8796
-90.3345
-90.7751
-91.2021
-91.6164
-92.0187
-92.4097
-92.7901
-93.1605
-93.5214
-93.8738
-94.218
-94.5548
-94.8847
-95.2084
-95.5265
-95.8394
-96.1477
-96.4519
-96.7524
-97.0498
-97.3444
-97.6368
-97.9274
-98.2166
-98.5049
-98.7927
-99.0803
-99.3681
-99.6565
-99.9459
-100.236
-100.528
-100.822
-101.118
-101.416
-101.717
-102.02
-102.326
-102.635
-102.947
-103.262
-103.58
-103.902
-104.226
-104.553
-104.884
-105.217
-105.552
-105.889
-106.228
-106.569
-106.91
-107.252
-107.594
-107.934
-108.273
-108.61
-108.943
-109.272
-109.596
-109.914
-110.225
-110.528
-110.821
-111.103
-111.373
-111.631
-111.874
-112.102
-112.314
-112.508
-112.683
-112.838
-112.973
-113.087
-113.179
-113.248
-113.295
-113.318
-1.31752
-3.95045
-6.57665
-9.19166
-11.7913
-14.3712
-16.9275
-19.4562
-21.9538
-24.4168
-26.842
-29.2266
-31.5681
-33.864
-36.1122
-38.3113
-40.4595
-42.5556
-44.5988
-46.5882
-48.5234
-50.4041
-52.2302
-54.0019
-55.7193
-57.3832
-58.9939
-60.5522
-62.0589
-63.5149
-64.9212
-66.2787
-67.5887
-68.8524
-70.0708
-71.2454
-72.3774
-73.4679
-74.5184
-75.53
-76.5041
-77.4419
-78.3447
-79.2138
-80.0504
-80.8558
-81.6311
-82.3775
-83.0962
-83.7882
-84.4548
-85.0969
-85.7157
-86.3121
-86.8872
-87.442
-87.9774
-88.4943
-88.9936
-89.4761
-89.9427
-90.3943
-90.8316
-91.2556
-91.6668
-92.0662
-92.4543
-92.8319
-93.1995
-93.5579
-93.9076
-94.2494
-94.5837
-94.9113
-95.2327
-95.5485
-95.8593
-96.1655
-96.4676
-96.7661
-97.0616
-97.3545
-97.645
-97.9338
-98.2214
-98.5082
-98.7944
-99.0805
-99.367
-99.6542
-99.9422
-100.232
-100.523
-100.815
-101.11
-101.407
-101.707
-102.01
-102.316
-102.624
-102.936
-103.251
-103.57
-103.891
-104.216
-104.545
-104.876
-105.21
-105.546
-105.885
-106.226
-106.568
-106.912
-107.256
-107.6
-107.944
-108.286
-108.626
-108.962
-109.295
-109.623
-109.945
-110.26
-110.567
-110.864
-111.151
-111.426
-111.688
-111.935
-112.167
-112.383
-112.58
-112.758
-112.917
-113.055
-113.171
-113.265
-113.336
-113.383
-113.407
-1.3264
-3.97703
-6.62075
-9.25293
-11.8693
-14.4654
-17.0371
-19.5806
-22.0921
-24.568
-27.0053
-29.401
-31.7523
-34.0572
-36.3133
-38.5191
-40.6731
-42.774
-44.821
-46.8132
-48.7504
-50.6323
-52.4587
-54.23
-55.9465
-57.6087
-59.2172
-60.7728
-62.2763
-63.7287
-65.1311
-66.4844
-67.7899
-69.0489
-70.2625
-71.432
-72.5588
-73.6442
-74.6893
-75.6957
-76.6644
-77.5969
-78.4944
-79.3583
-80.1897
-80.9899
-81.7602
-82.5016
-83.2153
-83.9026
-84.5645
-85.202
-85.8162
-86.4082
-86.979
-87.5296
-88.0609
-88.5738
-89.0692
-89.548
-90.0109
-90.4589
-90.8928
-91.3133
-91.7214
-92.1175
-92.5025
-92.877
-93.2417
-93.5972
-93.9442
-94.2833
-94.615
-94.94
-95.2589
-95.5724
-95.8808
-96.1846
-96.4845
-96.781
-97.0743
-97.3651
-97.6538
-97.9408
-98.2265
-98.5115
-98.7961
-99.0807
-99.3656
-99.6512
-99.9381
-100.226
-100.516
-100.808
-101.102
-101.398
-101.697
-101.999
-102.304
-102.613
-102.924
-103.239
-103.558
-103.88
-104.206
-104.535
-104.867
-105.202
-105.54
-105.88
-106.223
-106.568
-106.914
-107.26
-107.607
-107.954
-108.299
-108.643
-108.983
-109.32
-109.652
-109.979
-110.298
-110.609
-110.912
-111.203
-111.483
-111.749
-112.001
-112.238
-112.457
-112.659
-112.841
-113.003
-113.144
-113.262
-113.358
-113.431
-113.479
-113.504
-1.33607
-4.00596
-6.66874
-9.31961
-11.9541
-14.5678
-17.1564
-19.7159
-22.2424
-24.7325
-27.1828
-29.5903
-31.9525
-34.2669
-36.5315
-38.7447
-40.9048
-43.0108
-45.0618
-47.0571
-48.9963
-50.8793
-52.706
-54.4769
-56.1921
-57.8524
-59.4585
-61.0111
-62.5111
-63.9596
-65.3576
-66.7064
-68.007
-69.2608
-70.4691
-71.6332
-72.7544
-73.8341
-74.8735
-75.8741
-76.8371
-77.7638
-78.6556
-79.5138
-80.3396
-81.1342
-81.899
-82.635
-83.3435
-84.0256
-84.6824
-85.3149
-85.9243
-86.5116
-87.0777
-87.6238
-88.1507
-88.6593
-89.1505
-89.6252
-90.0842
-90.5284
-90.9585
-91.3754
-91.7799
-92.1726
-92.5543
-92.9255
-93.287
-93.6394
-93.9834
-94.3196
-94.6485
-94.9708
-95.287
-95.5978
-95.9037
-96.2052
-96.5027
-96.7967
-97.0879
-97.3766
-97.6631
-97.948
-98.2319
-98.5152
-98.7978
-99.0806
-99.364
-99.6483
-99.9335
-100.22
-100.509
-100.799
-101.092
-101.388
-101.686
-101.988
-102.292
-102.6
-102.912
-103.227
-103.546
-103.868
-104.194
-104.524
-104.857
-105.193
-105.533
-105.875
-106.22
-106.566
-106.915
-107.264
-107.614
-107.964
-108.313
-108.661
-109.005
-109.347
-109.683
-110.015
-110.339
-110.655
-110.963
-111.259
-111.544
-111.816
-112.073
-112.314
-112.538
-112.744
-112.93
-113.096
-113.24
-113.361
-113.46
-113.534
-113.584
-113.608
-1.34655
-4.03732
-6.72075
-9.39187
-12.0461
-14.6788
-17.2856
-19.8624
-22.4052
-24.9105
-27.3748
-29.7952
-32.1689
-34.4936
-36.7673
-38.9882
-41.155
-43.2663
-45.3216
-47.32
-49.2613
-51.1454
-52.9724
-54.7426
-56.4565
-58.1147
-59.718
-61.2672
-62.7634
-64.2076
-65.601
-66.9447
-68.24
-69.4883
-70.6908
-71.849
-72.9642
-74.0377
-75.071
-76.0653
-77.0221
-77.9426
-78.8283
-79.6803
-80.5001
-81.2888
-82.0476
-82.7779
-83.4807
-84.1572
-84.8086
-85.4358
-86.0399
-86.6221
-87.1833
-87.7245
-88.2467
-88.7507
-89.2374
-89.7078
-90.1626
-90.6026
-91.0287
-91.4418
-91.8424
-92.2314
-92.6095
-92.9773
-93.3354
-93.6845
-94.0253
-94.3584
-94.6842
-95.0035
-95.317
-95.6251
-95.9282
-96.227
-96.522
-96.8137
-97.1024
-97.3886
-97.673
-97.9559
-98.2375
-98.5186
-98.7996
-99.0806
-99.3621
-99.6446
-99.9284
-100.214
-100.501
-100.79
-101.082
-101.376
-101.674
-101.975
-102.279
-102.586
-102.898
-103.213
-103.532
-103.854
-104.181
-104.512
-104.846
-105.183
-105.524
-105.869
-106.215
-106.565
-106.916
-107.268
-107.622
-107.975
-108.328
-108.679
-109.029
-109.375
-109.716
-110.053
-110.382
-110.704
-111.017
-111.319
-111.61
-111.887
-112.149
-112.396
-112.625
-112.836
-113.027
-113.197
-113.344
-113.469
-113.569
-113.645
-113.696
-113.722
-1.35789
-4.0712
-6.77691
-9.46989
-12.1453
-14.7985
-17.425
-20.0204
-22.5808
-25.1023
-27.5817
-30.0158
-32.4019
-34.7377
-37.021
-39.2502
-41.4239
-43.541
-45.6007
-47.6024
-49.5458
-51.431
-53.2581
-55.0275
-56.7398
-58.3956
-59.9958
-61.5414
-63.0334
-64.4729
-65.8612
-67.1994
-68.489
-69.7313
-70.9276
-72.0794
-73.1881
-74.255
-75.2816
-76.2693
-77.2194
-78.1333
-79.0123
-79.8578
-80.6711
-81.4534
-82.206
-82.9301
-83.6268
-84.2974
-84.9429
-85.5644
-86.163
-86.7397
-87.2956
-87.8317
-88.3488
-88.8479
-89.3299
-89.7956
-90.2459
-90.6816
-91.1035
-91.5123
-91.9089
-92.2941
-92.6683
-93.0323
-93.3868
-93.7325
-94.0698
-94.3995
-94.7222
-95.0385
-95.3488
-95.6538
-95.9542
-96.2503
-96.5424
-96.8313
-97.1176
-97.4015
-97.6833
-97.9638
-98.2434
-98.5225
-98.8012
-99.0802
-99.36
-99.6407
-99.9227
-100.206
-100.492
-100.78
-101.071
-101.364
-101.661
-101.961
-102.264
-102.571
-102.882
-103.197
-103.516
-103.84
-104.167
-104.498
-104.833
-105.173
-105.515
-105.861
-106.21
-106.562
-106.916
-107.272
-107.629
-107.986
-108.343
-108.699
-109.053
-109.404
-109.751
-110.093
-110.429
-110.756
-111.075
-111.383
-111.68
-111.963
-112.232
-112.484
-112.719
-112.935
-113.13
-113.304
-113.456
-113.584
-113.687
-113.765
-113.818
-113.844
-1.37009
-4.10768
-6.83738
-9.55388
-12.2522
-14.9274
-17.575
-20.1904
-22.7695
-25.3086
-27.8041
-30.2529
-32.6521
-34.9996
-37.2932
-39.5311
-41.7122
-43.8352
-45.8995
-47.9045
-49.8501
-51.7364
-53.5635
-55.3319
-57.0423
-58.6955
-60.2923
-61.8339
-63.3213
-64.7557
-66.1384
-67.4708
-68.7541
-69.9899
-71.1796
-72.3245
-73.4262
-74.486
-75.5056
-76.4861
-77.4291
-78.3359
-79.2078
-80.0463
-80.8527
-81.6282
-82.3741
-83.0916
-83.7819
-84.4461
-85.0854
-85.7009
-86.2935
-86.8645
-87.4148
-87.9453
-88.4571
-88.951
-89.4279
-89.8888
-90.3343
-90.7652
-91.1826
-91.5871
-91.9794
-92.3603
-92.7305
-93.0907
-93.4412
-93.7831
-94.1169
-94.4433
-94.7624
-95.0753
-95.3825
-95.6844
-95.9816
-96.2746
-96.564
-96.8502
-97.1336
-97.4149
-97.6942
-97.9723
-98.2494
-98.5262
-98.8028
-99.0797
-99.3574
-99.6363
-99.9165
-100.198
-100.483
-100.769
-101.058
-101.351
-101.646
-101.945
-102.248
-102.555
-102.866
-103.181
-103.5
-103.823
-104.151
-104.483
-104.82
-105.16
-105.505
-105.853
-106.204
-106.559
-106.916
-107.275
-107.636
-107.997
-108.359
-108.719
-109.079
-109.435
-109.788
-110.136
-110.477
-110.811
-111.137
-111.452
-111.755
-112.044
-112.319
-112.578
-112.819
-113.04
-113.241
-113.42
-113.576
-113.707
-113.814
-113.894
-113.948
-113.975
-1.3832
-4.14686
-6.9023
-9.64405
-12.3669
-15.0658
-17.7359
-20.3727
-22.9719
-25.5297
-28.0423
-30.5067
-32.92
-35.2798
-37.5842
-39.8314
-42.0201
-44.1494
-46.2184
-48.2269
-50.1746
-52.0618
-53.8888
-55.656
-57.3643
-59.0145
-60.6076
-62.1447
-63.6272
-65.056
-66.4328
-67.7588
-69.0354
-70.2643
-71.4467
-72.5843
-73.6785
-74.7308
-75.7427
-76.7157
-77.651
-78.5502
-79.4147
-80.2458
-81.0448
-81.813
-82.5518
-83.2623
-83.9458
-84.6033
-85.236
-85.8451
-86.4314
-86.9963
-87.5406
-88.0653
-88.5714
-89.0599
-89.5314
-89.987
-90.4275
-90.8536
-91.2661
-91.6659
-92.0538
-92.4303
-92.7961
-93.152
-93.4987
-93.8367
-94.1666
-94.4891
-94.8048
-95.1142
-95.4179
-95.7165
-96.0105
-96.3004
-96.5867
-96.8699
-97.1505
-97.4289
-97.7055
-97.9811
-98.2557
-98.5299
-98.8043
-99.079
-99.3545
-99.6313
-99.9096
-100.19
-100.472
-100.757
-101.045
-101.336
-101.631
-101.929
-102.231
-102.537
-102.848
-103.163
-103.482
-103.806
-104.134
-104.467
-104.805
-105.147
-105.493
-105.843
-106.197
-106.555
-106.915
-107.278
-107.642
-108.008
-108.374
-108.74
-109.105
-109.467
-109.826
-110.18
-110.528
-110.869
-111.202
-111.524
-111.834
-112.131
-112.413
-112.678
-112.925
-113.153
-113.36
-113.544
-113.704
-113.84
-113.949
-114.032
-114.088
-114.116
-1.39725
-4.18884
-6.97187
-9.74065
-12.4897
-15.2139
-17.9081
-20.5678
-23.1885
-25.7661
-28.297
-30.7779
-33.206
-35.579
-37.8947
-40.1516
-42.3484
-44.484
-46.558
-48.5699
-50.5198
-52.4078
-54.2344
-56.0002
-57.706
-59.3529
-60.9419
-62.4743
-63.9512
-65.3741
-66.7444
-68.0635
-69.333
-70.5544
-71.7291
-72.8589
-73.9451
-74.9894
-75.9932
-76.958
-77.8853
-78.7765
-79.6329
-80.4561
-81.2473
-82.0079
-82.7391
-83.4423
-84.1185
-84.7689
-85.3947
-85.9969
-86.5767
-87.1351
-87.6731
-88.1917
-88.6918
-89.1744
-89.6404
-90.0905
-90.5256
-90.9465
-91.3541
-91.7489
-92.1319
-92.5038
-92.8652
-93.2167
-93.559
-93.8929
-94.2188
-94.5374
-94.8493
-95.155
-95.4551
-95.7501
-96.0408
-96.3274
-96.6104
-96.8904
-97.168
-97.4436
-97.7173
-97.99
-98.2621
-98.5338
-98.8056
-99.0779
-99.3513
-99.6259
-99.9021
-100.18
-100.461
-100.744
-101.031
-101.321
-101.614
-101.911
-102.212
-102.518
-102.828
-103.143
-103.462
-103.786
-104.116
-104.45
-104.788
-105.132
-105.48
-105.833
-106.189
-106.55
-106.913
-107.28
-107.649
-108.019
-108.39
-108.762
-109.132
-109.501
-109.866
-110.227
-110.582
-110.931
-111.27
-111.6
-111.918
-112.222
-112.512
-112.784
-113.039
-113.273
-113.486
-113.675
-113.841
-113.98
-114.093
-114.179
-114.237
-114.265
-1.41226
-4.23375
-7.04627
-9.84394
-12.6211
-15.3722
-18.0922
-20.7762
-23.4197
-26.0184
-28.5686
-31.067
-33.5108
-35.8976
-38.2253
-40.4923
-42.6974
-44.8397
-46.9187
-48.9341
-50.8859
-52.7746
-54.6007
-56.3648
-58.0679
-59.7111
-61.2956
-62.8226
-64.2937
-65.7101
-67.0734
-68.3852
-69.647
-70.8603
-72.0269
-73.1482
-74.226
-75.2617
-76.2569
-77.2131
-78.1319
-79.0145
-79.8625
-80.6773
-81.4603
-82.2128
-82.9361
-83.6314
-84.3
-84.9429
-85.5614
-86.1564
-86.7292
-87.2808
-87.8122
-88.3243
-88.8182
-89.2947
-89.7546
-90.199
-90.6286
-91.044
-91.4462
-91.8359
-92.214
-92.5809
-92.9375
-93.2845
-93.6223
-93.9518
-94.2735
-94.588
-94.8959
-95.1976
-95.494
-95.7854
-96.0724
-96.3554
-96.6352
-96.9119
-97.1862
-97.4586
-97.7295
-97.9993
-98.2685
-98.5375
-98.8067
-99.0765
-99.3475
-99.6199
-99.8939
-100.17
-100.449
-100.731
-101.015
-101.304
-101.596
-101.892
-102.192
-102.497
-102.807
-103.121
-103.441
-103.766
-104.095
-104.43
-104.77
-105.115
-105.466
-105.82
-106.18
-106.543
-106.911
-107.281
-107.654
-108.03
-108.406
-108.783
-109.16
-109.535
-109.907
-110.275
-110.638
-110.995
-111.342
-111.68
-112.006
-112.319
-112.616
-112.897
-113.159
-113.4
-113.62
-113.815
-113.986
-114.13
-114.247
-114.336
-114.395
-114.425
-1.42829
-4.28169
-7.12571
-9.95422
-12.7612
-15.5412
-18.2886
-20.9984
-23.6661
-26.2871
-28.8578
-31.3747
-33.835
-36.2363
-38.5765
-40.854
-43.0678
-45.2169
-47.301
-49.3198
-51.2736
-53.1628
-54.988
-56.7501
-58.4501
-60.0892
-61.6688
-63.1901
-64.6547
-66.0641
-67.4199
-68.7238
-69.9774
-71.1822
-72.34
-73.4524
-74.5212
-75.5478
-76.5339
-77.481
-78.3907
-79.2643
-80.1034
-80.9094
-81.6837
-82.4276
-83.1425
-83.8296
-84.4901
-85.1252
-85.736
-86.3235
-86.889
-87.4334
-87.9579
-88.4632
-88.9505
-89.4206
-89.8744
-90.3126
-90.7362
-91.146
-91.5427
-91.9269
-92.2997
-92.6616
-93.0132
-93.3553
-93.6885
-94.0134
-94.3306
-94.6408
-94.9445
-95.2423
-95.5346
-95.8221
-96.1054
-96.3848
-96.6608
-96.9342
-97.2051
-97.4742
-97.742
-98.0088
-98.275
-98.5411
-98.8077
-99.0749
-99.3432
-99.6132
-99.8851
-100.159
-100.436
-100.716
-100.999
-101.286
-101.576
-101.871
-102.171
-102.475
-102.784
-103.098
-103.418
-103.743
-104.073
-104.409
-104.751
-105.097
-105.449
-105.807
-106.169
-106.536
-106.907
-107.281
-107.659
-108.04
-108.422
-108.805
-109.188
-109.57
-109.95
-110.326
-110.697
-111.061
-111.418
-111.764
-112.099
-112.42
-112.727
-113.016
-113.286
-113.535
-113.761
-113.964
-114.14
-114.29
-114.411
-114.502
-114.564
-114.595
-1.44538
-4.33282
-7.21042
-10.0718
-12.9106
-15.7212
-18.4977
-21.235
-23.9283
-26.573
-29.1653
-31.7017
-34.1794
-36.5958
-38.949
-41.2375
-43.4602
-45.6163
-47.7055
-49.7277
-51.6833
-53.5727
-55.3969
-57.1566
-58.8531
-60.4877
-62.0617
-63.5768
-65.0345
-66.4364
-67.7842
-69.0796
-70.3243
-71.5201
-72.6686
-73.7715
-74.8307
-75.8477
-76.8242
-77.7617
-78.6617
-79.5259
-80.3555
-81.1523
-81.9174
-82.6523
-83.3584
-84.0369
-84.689
-85.3158
-85.9184
-86.4981
-87.0559
-87.5928
-88.11
-88.6083
-89.0887
-89.5519
-89.9992
-90.4312
-90.8487
-91.2524
-91.6433
-92.022
-92.3891
-92.7456
-93.0921
-93.4292
-93.7574
-94.0776
-94.3902
-94.6958
-94.9951
-95.2886
-95.5768
-95.8602
-96.1396
-96.4152
-96.6875
-96.9572
-97.2247
-97.4904
-97.7548
-98.0183
-98.2815
-98.5447
-98.8083
-99.0728
-99.3385
-99.6058
-99.8753
-100.147
-100.422
-100.7
-100.981
-101.266
-101.555
-101.849
-102.148
-102.451
-102.76
-103.074
-103.393
-103.718
-104.049
-104.386
-104.729
-105.077
-105.431
-105.791
-106.157
-106.527
-106.902
-107.281
-107.664
-108.049
-108.438
-108.827
-109.217
-109.606
-109.994
-110.378
-110.758
-111.131
-111.496
-111.852
-112.196
-112.527
-112.843
-113.141
-113.42
-113.677
-113.911
-114.121
-114.304
-114.459
-114.584
-114.679
-114.743
-114.775
-1.46358
-4.38729
-7.30065
-10.197
-13.0697
-15.9127
-18.7202
-21.4866
-24.207
-26.8768
-29.4918
-32.0487
-34.5445
-36.9768
-39.3435
-41.6434
-43.8752
-46.0384
-48.1327
-50.1583
-52.1155
-54.0049
-55.8276
-57.5846
-59.2771
-60.9067
-62.4748
-63.9831
-65.4333
-66.8271
-68.1663
-69.4526
-70.688
-71.874
-73.0126
-74.1055
-75.1546
-76.1614
-77.1277
-78.055
-78.945
-79.7991
-80.6189
-81.4059
-82.1614
-82.8869
-83.5837
-84.2532
-84.8964
-85.5145
-86.1088
-86.6802
-87.2299