/*--------------------------------*- C++ -*----------------------------------*\
| =========                 |                                                 |
| \\      /  F ield         | OpenFOAM: The Open Source CFD Toolbox           |
|  \\    /   O peration     | Version:  2312                                  |
|   \\  /    A nd           | Website:  www.openfoam.com                      |
|    \\/     M anipulation  |                                                 |
\*---------------------------------------------------------------------------*/
FoamFile
{
    version     2.0;
    format      ascii;
    arch        "LSB;label=32;scalar=64";
    class       volVectorField;
    location    "2";
    object      flux;
}
// * * * * * * * * * * * * * * * * * * * * * * * * * * * * * * * * * * * * * //

dimensions      [0 1 -1 1 0 0 0];

internalField   nonuniform List<vector> 
33600
(
(-1.26599 0.738495 0)
(-3.7966 0.737521 0)
(-6.32147 0.735342 0)
(-8.8368 0.732048 0)
(-11.3394 0.727752 0)
(-13.8254 0.722408 0)
(-16.2913 0.716082 0)
(-18.734 0.708826 0)
(-21.1501 0.700658 0)
(-23.5368 0.691644 0)
(-25.8913 0.681827 0)
(-28.2108 0.671277 0)
(-30.4931 0.660038 0)
(-32.7357 0.648187 0)
(-34.9368 0.635799 0)
(-37.0945 0.62292 0)
(-39.2074 0.60963 0)
(-41.274 0.595966 0)
(-43.2932 0.581993 0)
(-45.2642 0.567786 0)
(-47.1862 0.553389 0)
(-49.0586 0.538849 0)
(-50.8811 0.524236 0)
(-52.6534 0.50961 0)
(-54.3755 0.495 0)
(-56.0476 0.480429 0)
(-57.6699 0.46596 0)
(-59.243 0.451659 0)
(-60.7671 0.437453 0)
(-62.243 0.423465 0)
(-63.6715 0.40972 0)
(-65.053 0.396184 0)
(-66.3887 0.38292 0)
(-67.6794 0.36997 0)
(-68.9261 0.357267 0)
(-70.1298 0.344898 0)
(-71.2917 0.332832 0)
(-72.4127 0.321096 0)
(-73.494 0.309682 0)
(-74.5368 0.29862 0)
(-75.5422 0.287869 0)
(-76.5114 0.277485 0)
(-77.4455 0.267412 0)
(-78.3458 0.257705 0)
(-79.2132 0.248317 0)
(-80.0491 0.239282 0)
(-80.8546 0.230548 0)
(-81.6307 0.222164 0)
(-82.3786 0.214074 0)
(-83.0993 0.206339 0)
(-83.7939 0.1989 0)
(-84.4636 0.191781 0)
(-85.1093 0.184949 0)
(-85.7322 0.178397 0)
(-86.3331 0.172146 0)
(-86.9131 0.16615 0)
(-87.4731 0.160458 0)
(-88.0139 0.154988 0)
(-88.5366 0.149821 0)
(-89.0418 0.144867 0)
(-89.5304 0.14022 0)
(-90.0035 0.135777 0)
(-90.4617 0.131602 0)
(-90.906 0.127611 0)
(-91.3371 0.123856 0)
(-91.7558 0.120307 0)
(-92.1626 0.116975 0)
(-92.5584 0.113858 0)
(-92.9438 0.110906 0)
(-93.3194 0.108174 0)
(-93.6858 0.105588 0)
(-94.0439 0.103248 0)
(-94.394 0.101049 0)
(-94.737 0.0990542 0)
(-95.0734 0.0971989 0)
(-95.4037 0.0955098 0)
(-95.7285 0.0939896 0)
(-96.0484 0.0925922 0)
(-96.3638 0.0913639 0)
(-96.6753 0.0902517 0)
(-96.9832 0.0893011 0)
(-97.288 0.0884868 0)
(-97.5901 0.0878258 0)
(-97.8902 0.0872496 0)
(-98.1885 0.086778 0)
(-98.4855 0.0864798 0)
(-98.7815 0.08629 0)
(-99.077 0.0862012 0)
(-99.3724 0.0861513 0)
(-99.6681 0.0862157 0)
(-99.9642 0.0864251 0)
(-100.261 0.0866854 0)
(-100.559 0.0869945 0)
(-100.858 0.0873724 0)
(-101.158 0.0878521 0)
(-101.46 0.0883808 0)
(-101.764 0.0889337 0)
(-102.07 0.0895414 0)
(-102.378 0.0901761 0)
(-102.689 0.0908377 0)
(-103.001 0.0915167 0)
(-103.316 0.0921847 0)
(-103.633 0.0928413 0)
(-103.952 0.0934703 0)
(-104.274 0.0940659 0)
(-104.597 0.0946301 0)
(-104.923 0.0951236 0)
(-105.249 0.0955207 0)
(-105.578 0.0958435 0)
(-105.907 0.0960915 0)
(-106.236 0.0962119 0)
(-106.566 0.096168 0)
(-106.895 0.0959864 0)
(-107.224 0.0956812 0)
(-107.551 0.0951829 0)
(-107.876 0.0944487 0)
(-108.198 0.0935327 0)
(-108.517 0.0924347 0)
(-108.831 0.0910656 0)
(-109.141 0.0894218 0)
(-109.444 0.0875614 0)
(-109.741 0.085443 0)
(-110.03 0.0830047 0)
(-110.31 0.0802884 0)
(-110.58 0.0773248 0)
(-110.839 0.0740546 0)
(-111.087 0.0704666 0)
(-111.322 0.0666231 0)
(-111.543 0.0625134 0)
(-111.75 0.0581021 0)
(-111.941 0.0534425 0)
(-112.116 0.0485477 0)
(-112.274 0.0433977 0)
(-112.413 0.0380657 0)
(-112.534 0.032542 0)
(-112.636 0.0268309 0)
(-112.718 0.0210465 0)
(-112.78 0.0150976 0)
(-112.821 0.00908642 0)
(-112.842 0.00302811 0)
(-1.26656 2.21603 0)
(-3.79844 2.21287 0)
(-6.32467 2.20638 0)
(-8.84123 2.19652 0)
(-11.345 2.18361 0)
(-13.8322 2.16759 0)
(-16.2993 2.1486 0)
(-18.743 2.1268 0)
(-21.1601 2.10228 0)
(-23.5478 2.07521 0)
(-25.9031 2.04573 0)
(-28.2235 2.01405 0)
(-30.5065 1.98034 0)
(-32.7499 1.94478 0)
(-34.9516 1.90759 0)
(-37.1098 1.86894 0)
(-39.2231 1.82902 0)
(-41.2901 1.78801 0)
(-43.3097 1.74607 0)
(-45.2809 1.70341 0)
(-47.2031 1.66021 0)
(-49.0756 1.61659 0)
(-50.8981 1.57274 0)
(-52.6704 1.52884 0)
(-54.3925 1.48498 0)
(-56.0645 1.44127 0)
(-57.6867 1.39783 0)
(-59.2596 1.35487 0)
(-60.7835 1.3123 0)
(-62.2592 1.27031 0)
(-63.6874 1.22905 0)
(-65.0687 1.18848 0)
(-66.404 1.14868 0)
(-67.6944 1.10979 0)
(-68.9407 1.07171 0)
(-70.1441 1.03458 0)
(-71.3055 0.99839 0)
(-72.4262 0.963174 0)
(-73.5071 0.928936 0)
(-74.5495 0.895734 0)
(-75.5545 0.863499 0)
(-76.5233 0.832319 0)
(-77.4571 0.802129 0)
(-78.3569 0.772985 0)
(-79.224 0.744837 0)
(-80.0595 0.717715 0)
(-80.8646 0.691538 0)
(-81.6403 0.666379 0)
(-82.3878 0.642152 0)
(-83.1082 0.618922 0)
(-83.8024 0.59662 0)
(-84.4717 0.575225 0)
(-85.1171 0.554732 0)
(-85.7396 0.535071 0)
(-86.3403 0.516316 0)
(-86.9199 0.498347 0)
(-87.4796 0.48126 0)
(-88.0201 0.464897 0)
(-88.5425 0.449384 0)
(-89.0474 0.434574 0)
(-89.5357 0.42059 0)
(-90.0085 0.407272 0)
(-90.4664 0.394693 0)
(-90.9105 0.38274 0)
(-91.3413 0.371467 0)
(-91.7598 0.360847 0)
(-92.1664 0.350853 0)
(-92.5619 0.341495 0)
(-92.9471 0.332653 0)
(-93.3225 0.324447 0)
(-93.6887 0.316746 0)
(-94.0465 0.30969 0)
(-94.3965 0.303129 0)
(-94.7392 0.297099 0)
(-95.0754 0.291545 0)
(-95.4055 0.28645 0)
(-95.7302 0.281874 0)
(-96.0499 0.277715 0)
(-96.3652 0.274021 0)
(-96.6765 0.270732 0)
(-96.9842 0.2679 0)
(-97.2889 0.265449 0)
(-97.5909 0.263388 0)
(-97.8908 0.261715 0)
(-98.1889 0.260375 0)
(-98.4858 0.259443 0)
(-98.7817 0.258794 0)
(-99.0771 0.258481 0)
(-99.3724 0.258438 0)
(-99.6679 0.258659 0)
(-99.9639 0.259197 0)
(-100.261 0.259962 0)
(-100.558 0.260972 0)
(-100.857 0.262142 0)
(-101.158 0.263522 0)
(-101.46 0.26511 0)
(-101.764 0.26682 0)
(-102.069 0.268642 0)
(-102.378 0.27053 0)
(-102.688 0.272519 0)
(-103 0.274564 0)
(-103.315 0.276567 0)
(-103.632 0.278518 0)
(-103.952 0.280411 0)
(-104.273 0.282235 0)
(-104.597 0.283915 0)
(-104.922 0.285361 0)
(-105.249 0.286593 0)
(-105.577 0.287612 0)
(-105.906 0.28833 0)
(-106.236 0.28865 0)
(-106.566 0.288556 0)
(-106.896 0.288074 0)
(-107.224 0.28712 0)
(-107.552 0.285573 0)
(-107.877 0.283438 0)
(-108.199 0.280735 0)
(-108.518 0.27737 0)
(-108.833 0.27325 0)
(-109.143 0.268388 0)
(-109.447 0.262799 0)
(-109.743 0.256392 0)
(-110.033 0.249101 0)
(-110.313 0.240996 0)
(-110.583 0.232077 0)
(-110.843 0.222235 0)
(-111.091 0.211511 0)
(-111.327 0.199999 0)
(-111.548 0.187618 0)
(-111.755 0.174379 0)
(-111.947 0.160425 0)
(-112.122 0.145722 0)
(-112.28 0.130285 0)
(-112.42 0.114273 0)
(-112.541 0.0976852 0)
(-112.643 0.0806084 0)
(-112.725 0.0631405 0)
(-112.787 0.0453351 0)
(-112.829 0.0272874 0)
(-112.849 0.0091154 0)
(-1.26783 3.69484 0)
(-3.80223 3.68931 0)
(-6.33102 3.67849 0)
(-8.85009 3.66208 0)
(-11.3563 3.6405 0)
(-13.8458 3.6138 0)
(-16.3151 3.58211 0)
(-18.761 3.5457 0)
(-21.1802 3.50477 0)
(-23.5698 3.45958 0)
(-25.9269 3.4104 0)
(-28.249 3.35751 0)
(-30.5335 3.30128 0)
(-32.7782 3.24196 0)
(-34.9811 3.1799 0)
(-37.1404 3.1154 0)
(-39.2546 3.04878 0)
(-41.3224 2.98036 0)
(-43.3426 2.91039 0)
(-45.3143 2.83922 0)
(-47.2369 2.76715 0)
(-49.1096 2.69443 0)
(-50.9322 2.62129 0)
(-52.7045 2.54805 0)
(-54.4266 2.4749 0)
(-56.0984 2.40201 0)
(-57.7203 2.32958 0)
(-59.2929 2.25787 0)
(-60.8164 2.18695 0)
(-62.2916 2.11695 0)
(-63.7192 2.04813 0)
(-65.0999 1.98051 0)
(-66.4346 1.91416 0)
(-67.7243 1.84928 0)
(-68.9699 1.78585 0)
(-70.1726 1.72392 0)
(-71.3333 1.66361 0)
(-72.4532 1.60492 0)
(-73.5334 1.54785 0)
(-74.575 1.49249 0)
(-75.5792 1.43879 0)
(-76.5472 1.38679 0)
(-77.4801 1.33651 0)
(-78.3792 1.28792 0)
(-79.2455 1.24101 0)
(-80.0802 1.1958 0)
(-80.8846 1.1522 0)
(-81.6595 1.11026 0)
(-82.4063 1.06994 0)
(-83.1259 1.03119 0)
(-83.8194 0.994038 0)
(-84.488 0.958352 0)
(-85.1328 0.924196 0)
(-85.7546 0.891442 0)
(-86.3546 0.860179 0)
(-86.9336 0.830266 0)
(-87.4926 0.801772 0)
(-88.0325 0.774561 0)
(-88.5543 0.748694 0)
(-89.0586 0.724075 0)
(-89.5464 0.70072 0)
(-90.0186 0.678549 0)
(-90.476 0.657525 0)
(-90.9195 0.63764 0)
(-91.3499 0.618843 0)
(-91.7678 0.601174 0)
(-92.1739 0.584516 0)
(-92.569 0.568904 0)
(-92.9537 0.554215 0)
(-93.3287 0.540528 0)
(-93.6945 0.527777 0)
(-94.0518 0.515973 0)
(-94.4013 0.505053 0)
(-94.7437 0.494951 0)
(-95.0796 0.485701 0)
(-95.4093 0.477219 0)
(-95.7336 0.469587 0)
(-96.0529 0.462684 0)
(-96.3679 0.456539 0)
(-96.6788 0.451088 0)
(-96.9863 0.446331 0)
(-97.2906 0.442287 0)
(-97.5923 0.438852 0)
(-97.8919 0.436081 0)
(-98.1898 0.433863 0)
(-98.4864 0.432271 0)
(-98.7821 0.431193 0)
(-99.0772 0.430646 0)
(-99.3723 0.430601 0)
(-99.6676 0.430986 0)
(-99.9634 0.431888 0)
(-100.26 0.433172 0)
(-100.557 0.434848 0)
(-100.856 0.436847 0)
(-101.156 0.439165 0)
(-101.458 0.441807 0)
(-101.762 0.444663 0)
(-102.068 0.447714 0)
(-102.376 0.450892 0)
(-102.686 0.454211 0)
(-102.999 0.457612 0)
(-103.314 0.460948 0)
(-103.631 0.464218 0)
(-103.95 0.467411 0)
(-104.272 0.470455 0)
(-104.596 0.473232 0)
(-104.921 0.475663 0)
(-105.248 0.477781 0)
(-105.577 0.479505 0)
(-105.906 0.480665 0)
(-106.236 0.481213 0)
(-106.566 0.481131 0)
(-106.896 0.480347 0)
(-107.225 0.478723 0)
(-107.553 0.476157 0)
(-107.879 0.472665 0)
(-108.202 0.468184 0)
(-108.521 0.462534 0)
(-108.837 0.455683 0)
(-109.147 0.447652 0)
(-109.451 0.438316 0)
(-109.749 0.42759 0)
(-110.039 0.415503 0)
(-110.319 0.402026 0)
(-110.591 0.387088 0)
(-110.851 0.370698 0)
(-111.1 0.352893 0)
(-111.336 0.333646 0)
(-111.558 0.312969 0)
(-111.766 0.290958 0)
(-111.958 0.267652 0)
(-112.134 0.243099 0)
(-112.292 0.217426 0)
(-112.432 0.19067 0)
(-112.554 0.162997 0)
(-112.656 0.134547 0)
(-112.739 0.105357 0)
(-112.801 0.0756384 0)
(-112.843 0.0455594 0)
(-112.863 0.0152152 0)
(-1.26978 5.17547 0)
(-3.80798 5.16766 0)
(-6.34055 5.15241 0)
(-8.86339 5.12945 0)
(-11.3732 5.09914 0)
(-13.8662 5.06167 0)
(-16.339 5.01722 0)
(-18.7881 4.96613 0)
(-21.2104 4.9087 0)
(-23.6029 4.84529 0)
(-25.9627 4.77631 0)
(-28.2872 4.70213 0)
(-30.5739 4.62324 0)
(-32.8207 4.54006 0)
(-35.0254 4.45302 0)
(-37.1863 4.36257 0)
(-39.3019 4.26915 0)
(-41.3708 4.1732 0)
(-43.392 4.07513 0)
(-45.3645 3.97534 0)
(-47.2876 3.8743 0)
(-49.1607 3.77239 0)
(-50.9835 3.66989 0)
(-52.7558 3.56722 0)
(-54.4777 3.46471 0)
(-56.1493 3.36258 0)
(-57.7708 3.26111 0)
(-59.3428 3.16061 0)
(-60.8658 3.06127 0)
(-62.3402 2.96323 0)
(-63.767 2.8668 0)
(-65.1468 2.77209 0)
(-66.4805 2.67918 0)
(-67.7692 2.58828 0)
(-69.0138 2.49945 0)
(-70.2154 2.41274 0)
(-71.375 2.32828 0)
(-72.4937 2.2461 0)
(-73.5727 2.16621 0)
(-74.6132 2.08868 0)
(-75.6162 2.01351 0)
(-76.583 1.94071 0)
(-77.5147 1.87031 0)
(-78.4126 1.80229 0)
(-79.2777 1.73663 0)
(-80.1113 1.67332 0)
(-80.9145 1.61231 0)
(-81.6883 1.5536 0)
(-82.434 1.49716 0)
(-83.1524 1.44294 0)
(-83.8449 1.39091 0)
(-84.5125 1.34098 0)
(-85.1562 1.29316 0)
(-85.777 1.24734 0)
(-86.376 1.20357 0)
(-86.954 1.16173 0)
(-87.5121 1.12183 0)
(-88.0511 1.08378 0)
(-88.5719 1.04757 0)
(-89.0754 1.01315 0)
(-89.5623 0.980436 0)
(-90.0337 0.949429 0)
(-90.4903 0.919981 0)
(-90.9331 0.892174 0)
(-91.3626 0.865865 0)
(-91.7798 0.841132 0)
(-92.1852 0.817832 0)
(-92.5796 0.795966 0)
(-92.9636 0.775464 0)
(-93.3379 0.756316 0)
(-93.703 0.738495 0)
(-94.0598 0.721953 0)
(-94.4087 0.706646 0)
(-94.7505 0.692503 0)
(-95.0858 0.67957 0)
(-95.4149 0.667741 0)
(-95.7387 0.657077 0)
(-96.0575 0.647408 0)
(-96.372 0.638777 0)
(-96.6824 0.631183 0)
(-96.9894 0.624548 0)
(-97.2932 0.618909 0)
(-97.5945 0.614113 0)
(-97.8937 0.610219 0)
(-98.1911 0.607128 0)
(-98.4873 0.604902 0)
(-98.7826 0.603431 0)
(-99.0774 0.602652 0)
(-99.3722 0.602589 0)
(-99.6672 0.603165 0)
(-99.9626 0.604455 0)
(-100.259 0.606273 0)
(-100.556 0.608597 0)
(-100.855 0.611432 0)
(-101.155 0.614721 0)
(-101.456 0.618439 0)
(-101.76 0.622443 0)
(-102.066 0.626715 0)
(-102.374 0.631226 0)
(-102.684 0.6359 0)
(-102.996 0.640648 0)
(-103.311 0.645331 0)
(-103.629 0.649962 0)
(-103.948 0.654491 0)
(-104.27 0.658734 0)
(-104.594 0.66263 0)
(-104.919 0.666126 0)
(-105.247 0.669131 0)
(-105.576 0.671537 0)
(-105.905 0.673184 0)
(-106.236 0.674012 0)
(-106.567 0.673965 0)
(-106.897 0.672866 0)
(-107.227 0.670602 0)
(-107.555 0.667101 0)
(-107.882 0.662253 0)
(-108.205 0.655966 0)
(-108.526 0.648105 0)
(-108.842 0.638563 0)
(-109.153 0.627329 0)
(-109.458 0.614278 0)
(-109.757 0.599282 0)
(-110.047 0.582384 0)
(-110.329 0.563527 0)
(-110.602 0.54259 0)
(-110.863 0.51966 0)
(-111.113 0.49475 0)
(-111.35 0.467748 0)
(-111.573 0.438791 0)
(-111.782 0.407997 0)
(-111.975 0.375297 0)
(-112.151 0.340869 0)
(-112.31 0.304899 0)
(-112.451 0.267413 0)
(-112.574 0.228597 0)
(-112.676 0.188643 0)
(-112.759 0.147765 0)
(-112.822 0.106096 0)
(-112.864 0.0638794 0)
(-112.885 0.0213199 0)
(-1.27239 6.65869 0)
(-3.81569 6.64862 0)
(-6.3533 6.62889 0)
(-8.88116 6.59933 0)
(-11.3958 6.56023 0)
(-13.8936 6.5119 0)
(-16.3709 6.45458 0)
(-18.8243 6.3887 0)
(-21.2507 6.31465 0)
(-23.647 6.23289 0)
(-26.0104 6.14397 0)
(-28.3383 6.04836 0)
(-30.628 5.94667 0)
(-32.8774 5.83946 0)
(-35.0846 5.7273 0)
(-37.2476 5.61075 0)
(-39.3651 5.49037 0)
(-41.4356 5.36674 0)
(-43.458 5.24042 0)
(-45.4315 5.1119 0)
(-47.3553 4.98175 0)
(-49.2289 4.85052 0)
(-51.0519 4.71856 0)
(-52.8242 4.58636 0)
(-54.5459 4.45438 0)
(-56.2172 4.32293 0)
(-57.8381 4.19232 0)
(-59.4094 4.06296 0)
(-60.9316 3.93512 0)
(-62.405 3.809 0)
(-63.8307 3.68489 0)
(-65.2094 3.56305 0)
(-66.5418 3.44354 0)
(-67.8291 3.32658 0)
(-69.0723 3.21232 0)
(-70.2724 3.10082 0)
(-71.4305 2.99217 0)
(-72.5477 2.88648 0)
(-73.6252 2.78376 0)
(-74.6641 2.68405 0)
(-75.6655 2.5874 0)
(-76.6307 2.49381 0)
(-77.5609 2.4033 0)
(-78.4572 2.31585 0)
(-79.3207 2.23145 0)
(-80.1528 2.15005 0)
(-80.9544 2.07164 0)
(-81.7267 1.99617 0)
(-82.4708 1.92363 0)
(-83.1879 1.85394 0)
(-83.8789 1.78706 0)
(-84.545 1.72289 0)
(-85.1874 1.66143 0)
(-85.8068 1.60256 0)
(-86.4045 1.54631 0)
(-86.9812 1.49255 0)
(-87.5381 1.44126 0)
(-88.0759 1.39238 0)
(-88.5955 1.34584 0)
(-89.0977 1.30163 0)
(-89.5835 1.25958 0)
(-90.0538 1.21974 0)
(-90.5094 1.1819 0)
(-90.9511 1.14617 0)
(-91.3796 1.11238 0)
(-91.7958 1.08058 0)
(-92.2002 1.05066 0)
(-92.5937 1.02257 0)
(-92.9768 0.996242 0)
(-93.3502 0.971657 0)
(-93.7145 0.948762 0)
(-94.0704 0.927485 0)
(-94.4185 0.907826 0)
(-94.7595 0.889666 0)
(-95.094 0.873076 0)
(-95.4224 0.857896 0)
(-95.7455 0.844164 0)
(-96.0636 0.831761 0)
(-96.3774 0.820691 0)
(-96.6871 0.810958 0)
(-96.9934 0.802469 0)
(-97.2967 0.795221 0)
(-97.5974 0.789052 0)
(-97.896 0.78406 0)
(-98.1929 0.780149 0)
(-98.4886 0.777286 0)
(-98.7834 0.775393 0)
(-99.0777 0.7744 0)
(-99.372 0.774364 0)
(-99.6666 0.775163 0)
(-99.9616 0.776805 0)
(-100.257 0.779167 0)
(-100.554 0.782185 0)
(-100.853 0.785887 0)
(-101.152 0.790151 0)
(-101.454 0.794942 0)
(-101.757 0.800131 0)
(-102.063 0.805656 0)
(-102.371 0.811517 0)
(-102.681 0.817548 0)
(-102.993 0.823662 0)
(-103.308 0.829762 0)
(-103.625 0.835763 0)
(-103.945 0.841621 0)
(-104.267 0.847129 0)
(-104.591 0.852189 0)
(-104.917 0.856767 0)
(-105.245 0.860676 0)
(-105.574 0.863804 0)
(-105.905 0.86601 0)
(-106.236 0.867129 0)
(-106.567 0.867121 0)
(-106.898 0.865788 0)
(-107.229 0.862915 0)
(-107.558 0.858484 0)
(-107.885 0.852345 0)
(-108.21 0.844281 0)
(-108.532 0.834221 0)
(-108.849 0.82204 0)
(-109.161 0.807609 0)
(-109.468 0.790859 0)
(-109.767 0.771658 0)
(-110.059 0.749931 0)
(-110.343 0.725685 0)
(-110.616 0.698834 0)
(-110.879 0.669326 0)
(-111.13 0.637221 0)
(-111.369 0.602548 0)
(-111.593 0.565312 0)
(-111.803 0.525585 0)
(-111.997 0.483528 0)
(-112.175 0.439239 0)
(-112.335 0.392822 0)
(-112.477 0.344578 0)
(-112.6 0.294564 0)
(-112.703 0.243091 0)
(-112.787 0.190422 0)
(-112.85 0.136724 0)
(-112.892 0.0823029 0)
(-112.913 0.0274815 0)
(-1.27566 8.14527 0)
(-3.82536 8.13296 0)
(-6.36931 8.1087 0)
(-8.90344 8.07244 0)
(-11.4242 8.02447 0)
(-13.9279 7.96516 0)
(-16.4108 7.89486 0)
(-18.8697 7.81403 0)
(-21.3013 7.72322 0)
(-23.7024 7.62294 0)
(-26.0703 7.51388 0)
(-28.4023 7.39666 0)
(-30.6958 7.27198 0)
(-32.9486 7.14055 0)
(-35.1588 7.00306 0)
(-37.3245 6.86021 0)
(-39.4442 6.71268 0)
(-41.5166 6.56119 0)
(-43.5407 6.40642 0)
(-45.5154 6.24902 0)
(-47.44 6.0896 0)
(-49.3142 5.92887 0)
(-51.1376 5.76732 0)
(-52.9099 5.60545 0)
(-54.6314 5.44386 0)
(-56.3021 5.28297 0)
(-57.9224 5.12313 0)
(-59.4928 4.9648 0)
(-61.0139 4.80837 0)
(-62.4862 4.65408 0)
(-63.9105 4.50225 0)
(-65.2876 4.35319 0)
(-66.6185 4.20704 0)
(-67.9041 4.06399 0)
(-69.1455 3.92425 0)
(-70.3438 3.78791 0)
(-71.5 3.65507 0)
(-72.6153 3.52584 0)
(-73.6908 3.40027 0)
(-74.7277 3.27839 0)
(-75.7272 3.16024 0)
(-76.6904 3.04587 0)
(-77.6186 2.93525 0)
(-78.5128 2.82838 0)
(-79.3744 2.72525 0)
(-80.2045 2.62578 0)
(-81.0043 2.52997 0)
(-81.7747 2.43777 0)
(-82.5169 2.34914 0)
(-83.2321 2.264 0)
(-83.9214 2.18228 0)
(-84.5857 2.10389 0)
(-85.2264 2.0288 0)
(-85.8441 1.9569 0)
(-86.4401 1.88818 0)
(-87.0153 1.82252 0)
(-87.5705 1.75988 0)
(-88.1068 1.70018 0)
(-88.6249 1.64334 0)
(-89.1257 1.58934 0)
(-89.6101 1.538 0)
(-90.079 1.48932 0)
(-90.5332 1.44313 0)
(-90.9736 1.39948 0)
(-91.4009 1.35823 0)
(-91.8158 1.31941 0)
(-92.219 1.28285 0)
(-92.6114 1.24857 0)
(-92.9933 1.21643 0)
(-93.3656 1.18641 0)
(-93.7288 1.15848 0)
(-94.0836 1.13249 0)
(-94.4308 1.10849 0)
(-94.7708 1.08633 0)
(-95.1043 1.06607 0)
(-95.4318 1.04756 0)
(-95.7539 1.03079 0)
(-96.0712 1.01567 0)
(-96.3841 1.00218 0)
(-96.6931 0.990319 0)
(-96.9985 0.979956 0)
(-97.301 0.971109 0)
(-97.601 0.963628 0)
(-97.8989 0.957552 0)
(-98.1951 0.952798 0)
(-98.4901 0.949303 0)
(-98.7843 0.947036 0)
(-99.078 0.945867 0)
(-99.3718 0.945845 0)
(-99.6658 0.946882 0)
(-99.9603 0.948905 0)
(-100.256 0.95183 0)
(-100.552 0.955559 0)
(-100.85 0.960145 0)
(-101.149 0.965417 0)
(-101.451 0.971285 0)
(-101.754 0.977696 0)
(-102.059 0.984512 0)
(-102.367 0.991731 0)
(-102.677 0.999163 0)
(-102.989 1.00667 0)
(-103.304 1.01422 0)
(-103.622 1.02163 0)
(-103.941 1.02885 0)
(-104.264 1.03568 0)
(-104.588 1.04193 0)
(-104.915 1.04762 0)
(-105.243 1.05251 0)
(-105.572 1.05639 0)
(-105.903 1.05917 0)
(-106.235 1.06068 0)
(-106.567 1.06074 0)
(-106.9 1.05919 0)
(-107.231 1.05578 0)
(-107.561 1.05046 0)
(-107.89 1.04306 0)
(-108.216 1.03328 0)
(-108.539 1.02104 0)
(-108.857 1.00627 0)
(-109.171 0.988712 0)
(-109.479 0.968243 0)
(-109.781 0.944859 0)
(-110.074 0.918383 0)
(-110.359 0.888735 0)
(-110.634 0.855948 0)
(-110.899 0.819907 0)
(-111.152 0.780594 0)
(-111.392 0.73819 0)
(-111.618 0.692664 0)
(-111.829 0.643996 0)
(-112.025 0.592486 0)
(-112.204 0.538278 0)
(-112.366 0.481485 0)
(-112.509 0.422282 0)
(-112.633 0.361068 0)
(-112.737 0.298001 0)
(-112.821 0.233382 0)
(-112.885 0.167574 0)
(-112.927 0.100907 0)
(-112.949 0.0336915 0)
(-1.27958 9.63599 0)
(-3.83702 9.62141 0)
(-6.38861 9.59257 0)
(-8.93029 9.54953 0)
(-11.4584 9.49259 0)
(-13.9692 9.42216 0)
(-16.459 9.33871 0)
(-18.9244 9.24276 0)
(-21.3622 9.13497 0)
(-23.7691 9.01597 0)
(-26.1424 8.88655 0)
(-28.4794 8.7475 0)
(-30.7774 8.5996 0)
(-33.0343 8.44369 0)
(-35.2481 8.28064 0)
(-37.417 8.11124 0)
(-39.5395 7.93633 0)
(-41.6142 7.75675 0)
(-43.6401 7.5733 0)
(-45.6163 7.38681 0)
(-47.542 7.19792 0)
(-49.4169 7.0075 0)
(-51.2406 6.81616 0)
(-53.0129 6.62447 0)
(-54.7341 6.43311 0)
(-56.4042 6.24261 0)
(-58.0237 6.05342 0)
(-59.593 5.86602 0)
(-61.1128 5.68088 0)
(-62.5836 5.49834 0)
(-64.0062 5.31871 0)
(-65.3816 5.14235 0)
(-66.7105 4.96948 0)
(-67.9941 4.8003 0)
(-69.2334 4.63503 0)
(-70.4295 4.4738 0)
(-71.5834 4.31674 0)
(-72.6964 4.16395 0)
(-73.7695 4.0155 0)
(-74.8041 3.87145 0)
(-75.8012 3.73181 0)
(-76.762 3.59664 0)
(-77.6878 3.46593 0)
(-78.5797 3.33965 0)
(-79.4389 3.21779 0)
(-80.2667 3.10027 0)
(-81.0641 2.98708 0)
(-81.8322 2.87817 0)
(-82.5722 2.77346 0)
(-83.2852 2.67287 0)
(-83.9723 2.57635 0)
(-84.6346 2.48375 0)
(-85.2731 2.39507 0)
(-85.8889 2.31016 0)
(-86.4829 2.22901 0)
(-87.0561 2.15147 0)
(-87.6095 2.07751 0)
(-88.1438 2.00702 0)
(-88.6601 1.93991 0)
(-89.1592 1.87613 0)
(-89.6419 1.81552 0)
(-90.1092 1.75803 0)
(-90.5618 1.70351 0)
(-91.0006 1.65198 0)
(-91.4263 1.60329 0)
(-91.8398 1.55746 0)
(-92.2416 1.51431 0)
(-92.6325 1.47382 0)
(-93.0131 1.4359 0)
(-93.384 1.40047 0)
(-93.746 1.36751 0)
(-94.0995 1.33684 0)
(-94.4455 1.30852 0)
(-94.7843 1.28237 0)
(-95.1166 1.25847 0)
(-95.443 1.23663 0)
(-95.7641 1.21685 0)
(-96.0803 1.19902 0)
(-96.3922 1.18312 0)
(-96.7001 1.16913 0)
(-97.0046 1.15695 0)
(-97.3062 1.14652 0)
(-97.6053 1.13772 0)
(-97.9023 1.13057 0)
(-98.1977 1.12502 0)
(-98.4919 1.12092 0)
(-98.7854 1.11827 0)
(-99.0784 1.11696 0)
(-99.3714 1.11698 0)
(-99.6648 1.11827 0)
(-99.9587 1.12068 0)
(-100.254 1.1242 0)
(-100.55 1.12869 0)
(-100.847 1.13416 0)
(-101.146 1.14046 0)
(-101.447 1.14746 0)
(-101.75 1.15511 0)
(-102.055 1.16326 0)
(-102.362 1.17186 0)
(-102.672 1.18074 0)
(-102.984 1.18968 0)
(-103.299 1.1987 0)
(-103.617 1.2076 0)
(-103.937 1.21621 0)
(-104.259 1.22437 0)
(-104.584 1.23191 0)
(-104.911 1.23875 0)
(-105.24 1.24466 0)
(-105.57 1.24935 0)
(-105.902 1.25277 0)
(-106.235 1.25473 0)
(-106.568 1.25491 0)
(-106.901 1.25316 0)
(-107.234 1.24934 0)
(-107.565 1.24319 0)
(-107.895 1.23451 0)
(-108.223 1.22309 0)
(-108.547 1.20878 0)
(-108.868 1.19142 0)
(-109.183 1.17077 0)
(-109.493 1.14667 0)
(-109.796 1.1191 0)
(-110.092 1.0879 0)
(-110.379 1.0529 0)
(-110.656 1.0141 0)
(-110.923 0.97154 0)
(-111.178 0.925149 0)
(-111.42 0.874896 0)
(-111.648 0.820916 0)
(-111.861 0.763452 0)
(-112.059 0.702501 0)
(-112.239 0.638154 0)
(-112.402 0.570852 0)
(-112.547 0.500783 0)
(-112.672 0.428179 0)
(-112.778 0.353378 0)
(-112.863 0.276776 0)
(-112.927 0.198762 0)
(-112.97 0.119672 0)
(-112.992 0.0399603 0)
(-1.28416 11.1316 0)
(-3.85069 11.1148 0)
(-6.41124 11.0813 0)
(-8.96177 11.0313 0)
(-11.4985 10.9653 0)
(-14.0176 10.8836 0)
(-16.5155 10.7868 0)
(-18.9886 10.6755 0)
(-21.4336 10.5505 0)
(-23.8473 10.4126 0)
(-26.2269 10.2625 0)
(-28.5697 10.1013 0)
(-30.873 9.92994 0)
(-33.1347 9.74928 0)
(-35.3527 9.56036 0)
(-37.5253 9.36412 0)
(-39.651 9.16156 0)
(-41.7284 8.95362 0)
(-43.7565 8.74122 0)
(-45.7343 8.52536 0)
(-47.6613 8.3068 0)
(-49.5369 8.08644 0)
(-51.361 7.86509 0)
(-53.1334 7.64339 0)
(-54.8541 7.42206 0)
(-56.5236 7.2018 0)
(-58.1421 6.98309 0)
(-59.7101 6.76649 0)
(-61.2284 6.55252 0)
(-62.6974 6.34159 0)
(-64.1181 6.13408 0)
(-65.4913 5.93034 0)
(-66.818 5.73066 0)
(-68.0992 5.53529 0)
(-69.336 5.34443 0)
(-70.5295 5.15827 0)
(-71.6807 4.97696 0)
(-72.791 4.80058 0)
(-73.8614 4.62924 0)
(-74.8932 4.46299 0)
(-75.8875 4.30187 0)
(-76.8455 4.1459 0)
(-77.7685 3.9951 0)
(-78.6576 3.84942 0)
(-79.5141 3.70883 0)
(-80.3391 3.57329 0)
(-81.1338 3.44275 0)
(-81.8993 3.31712 0)
(-82.6367 3.19638 0)
(-83.3471 3.08036 0)
(-84.0317 2.96906 0)
(-84.6915 2.86228 0)
(-85.3276 2.76003 0)
(-85.941 2.66215 0)
(-86.5327 2.5686 0)
(-87.1037 2.47923 0)
(-87.6548 2.39397 0)
(-88.187 2.31272 0)
(-88.7012 2.23537 0)
(-89.1982 2.16184 0)
(-89.679 2.09197 0)
(-90.1443 2.02571 0)
(-90.5951 1.96288 0)
(-91.0321 1.90351 0)
(-91.456 1.84742 0)
(-91.8677 1.79458 0)
(-92.2678 1.74487 0)
(-92.6571 1.69821 0)
(-93.0361 1.65452 0)
(-93.4055 1.61372 0)
(-93.7659 1.57574 0)
(-94.1181 1.5404 0)
(-94.4625 1.50779 0)
(-94.8 1.47768 0)
(-95.131 1.45015 0)
(-95.4561 1.42501 0)
(-95.7759 1.40222 0)
(-96.0909 1.38171 0)
(-96.4015 1.36343 0)
(-96.7083 1.34736 0)
(-97.0117 1.33335 0)
(-97.3123 1.32135 0)
(-97.6103 1.31127 0)
(-97.9063 1.30307 0)
(-98.2007 1.29671 0)
(-98.494 1.29204 0)
(-98.7866 1.28905 0)
(-99.0788 1.28761 0)
(-99.371 1.28769 0)
(-99.6636 1.28925 0)
(-99.9568 1.2921 0)
(-100.251 1.29623 0)
(-100.546 1.30151 0)
(-100.843 1.3079 0)
(-101.142 1.31527 0)
(-101.442 1.32342 0)
(-101.745 1.33234 0)
(-102.049 1.34188 0)
(-102.357 1.35189 0)
(-102.666 1.36223 0)
(-102.979 1.37269 0)
(-103.294 1.38323 0)
(-103.611 1.39366 0)
(-103.932 1.4037 0)
(-104.254 1.41327 0)
(-104.58 1.42218 0)
(-104.907 1.4302 0)
(-105.237 1.43715 0)
(-105.568 1.44279 0)
(-105.9 1.44691 0)
(-106.234 1.44932 0)
(-106.568 1.44973 0)
(-106.903 1.4479 0)
(-107.237 1.44367 0)
(-107.57 1.43675 0)
(-107.902 1.42688 0)
(-108.231 1.41392 0)
(-108.557 1.3976 0)
(-108.88 1.37763 0)
(-109.197 1.35394 0)
(-109.509 1.32638 0)
(-109.815 1.29461 0)
(-110.113 1.25858 0)
(-110.402 1.21834 0)
(-110.682 1.17369 0)
(-110.951 1.12444 0)
(-111.208 1.07083 0)
(-111.453 1.01291 0)
(-111.683 0.950574 0)
(-111.899 0.883991 0)
(-112.098 0.813429 0)
(-112.281 0.739169 0)
(-112.446 0.661209 0)
(-112.592 0.580062 0)
(-112.719 0.49598 0)
(-112.825 0.4094 0)
(-112.912 0.320681 0)
(-112.977 0.230264 0)
(-113.02 0.138657 0)
(-113.042 0.0463157 0)
(-1.28942 12.633 0)
(-3.86639 12.6138 0)
(-6.43727 12.5756 0)
(-8.99795 12.5186 0)
(-11.5446 12.4433 0)
(-14.0733 12.3501 0)
(-16.5804 12.2398 0)
(-19.0623 12.1129 0)
(-21.5156 11.9704 0)
(-23.9371 11.8132 0)
(-26.324 11.6423 0)
(-28.6734 11.4587 0)
(-30.9828 11.2634 0)
(-33.2499 11.0577 0)
(-35.4728 10.8426 0)
(-37.6497 10.6192 0)
(-39.7789 10.3886 0)
(-41.8594 10.152 0)
(-43.8899 9.91034 0)
(-45.8697 9.66481 0)
(-47.7981 9.4163 0)
(-49.6745 9.16573 0)
(-51.499 8.91411 0)
(-53.2714 8.66216 0)
(-54.9916 8.41068 0)
(-56.6603 8.16044 0)
(-58.2776 7.91203 0)
(-59.8442 7.66607 0)
(-61.3607 7.42313 0)
(-62.8277 7.18368 0)
(-64.2461 6.94816 0)
(-65.6169 6.71695 0)
(-66.941 6.49038 0)
(-68.2194 6.26873 0)
(-69.4533 6.05224 0)
(-70.6438 5.84111 0)
(-71.792 5.63549 0)
(-72.8992 5.43551 0)
(-73.9665 5.24126 0)
(-74.995 5.0528 0)
(-75.9861 4.87018 0)
(-76.9409 4.69342 0)
(-77.8607 4.52252 0)
(-78.7466 4.35745 0)
(-79.6 4.19817 0)
(-80.4219 4.0446 0)
(-81.2135 3.89674 0)
(-81.9759 3.75442 0)
(-82.7103 3.61768 0)
(-83.4178 3.48626 0)
(-84.0995 3.3602 0)
(-84.7565 3.23928 0)
(-85.3899 3.1235 0)
(-86.0005 3.01268 0)
(-86.5896 2.90676 0)
(-87.158 2.80559 0)
(-87.7066 2.70907 0)
(-88.2364 2.61711 0)
(-88.7481 2.52953 0)
(-89.2428 2.44631 0)
(-89.7213 2.36719 0)
(-90.1845 2.29219 0)
(-90.6331 2.2211 0)
(-91.068 2.1539 0)
(-91.4899 2.09044 0)
(-91.8996 2.03064 0)
(-92.2978 1.97438 0)
(-92.6852 1.92158 0)
(-93.0624 1.87216 0)
(-93.43 1.82598 0)
(-93.7887 1.78303 0)
(-94.1392 1.74307 0)
(-94.482 1.70617 0)
(-94.8179 1.67214 0)
(-95.1474 1.641 0)
(-95.471 1.61258 0)
(-95.7893 1.58682 0)
(-96.1029 1.56366 0)
(-96.4122 1.54301 0)
(-96.7177 1.52486 0)
(-97.0198 1.50905 0)
(-97.3191 1.49551 0)
(-97.6159 1.48416 0)
(-97.9108 1.47494 0)
(-98.2041 1.46781 0)
(-98.4964 1.46261 0)
(-98.788 1.45927 0)
(-99.0792 1.45773 0)
(-99.3705 1.45792 0)
(-99.6622 1.45978 0)
(-99.9546 1.46309 0)
(-100.248 1.46786 0)
(-100.543 1.47399 0)
(-100.839 1.48133 0)
(-101.137 1.48977 0)
(-101.437 1.49915 0)
(-101.739 1.50939 0)
(-102.043 1.52035 0)
(-102.35 1.53181 0)
(-102.66 1.54365 0)
(-102.972 1.55571 0)
(-103.287 1.56782 0)
(-103.605 1.57979 0)
(-103.926 1.59137 0)
(-104.249 1.6024 0)
(-104.574 1.61272 0)
(-104.902 1.62204 0)
(-105.233 1.63009 0)
(-105.565 1.63671 0)
(-105.898 1.64165 0)
(-106.233 1.64459 0)
(-106.569 1.64529 0)
(-106.905 1.64346 0)
(-107.24 1.63891 0)
(-107.575 1.63133 0)
(-107.909 1.62037 0)
(-108.24 1.60583 0)
(-108.568 1.58758 0)
(-108.893 1.56524 0)
(-109.213 1.53848 0)
(-109.528 1.5073 0)
(-109.836 1.47157 0)
(-110.137 1.43091 0)
(-110.429 1.38522 0)
(-110.711 1.33458 0)
(-110.983 1.27897 0)
(-111.243 1.21819 0)
(-111.49 1.15226 0)
(-111.723 1.08153 0)
(-111.941 1.00602 0)
(-112.143 0.925813 0)
(-112.328 0.841281 0)
(-112.495 0.75268 0)
(-112.643 0.660334 0)
(-112.772 0.564711 0)
(-112.88 0.466131 0)
(-112.967 0.365095 0)
(-113.033 0.262193 0)
(-113.077 0.157911 0)
(-113.1 0.0527364 0)
(-1.29536 14.1409 0)
(-3.88417 14.1193 0)
(-6.46675 14.0763 0)
(-9.03893 14.0122 0)
(-11.5968 13.9274 0)
(-14.1364 13.8225 0)
(-16.6539 13.6984 0)
(-19.1457 13.5557 0)
(-21.6084 13.3954 0)
(-24.0388 13.2186 0)
(-26.4338 13.0264 0)
(-28.7907 12.8199 0)
(-31.1069 12.6005 0)
(-33.3802 12.3693 0)
(-35.6085 12.1276 0)
(-37.7902 11.8766 0)
(-39.9235 11.6177 0)
(-42.0074 11.352 0)
(-44.0406 11.0808 0)
(-46.0225 10.8053 0)
(-47.9524 10.5265 0)
(-49.8299 10.2454 0)
(-51.6548 9.96323 0)
(-53.427 9.68077 0)
(-55.1468 9.39889 0)
(-56.8145 9.11846 0)
(-58.4305 8.84014 0)
(-59.9953 8.56463 0)
(-61.5098 8.29255 0)
(-62.9745 8.02444 0)
(-64.3904 7.76078 0)
(-65.7584 7.50199 0)
(-67.0795 7.24844 0)
(-68.3548 7.00043 0)
(-69.5854 6.75823 0)
(-70.7726 6.52207 0)
(-71.9173 6.29211 0)
(-73.021 6.06848 0)
(-74.0847 5.8513 0)
(-75.1096 5.64061 0)
(-76.0971 5.43649 0)
(-77.0483 5.23895 0)
(-77.9644 5.04796 0)
(-78.8468 4.86351 0)
(-79.6966 4.68555 0)
(-80.5149 4.51399 0)
(-81.3031 4.34882 0)
(-82.0621 4.18987 0)
(-82.7931 4.03712 0)
(-83.4973 3.89036 0)
(-84.1758 3.74957 0)
(-84.8296 3.61455 0)
(-85.4598 3.48526 0)
(-86.0674 3.36155 0)
(-86.6535 3.24329 0)
(-87.219 3.13038 0)
(-87.7648 3.02262 0)
(-88.2918 2.91999 0)
(-88.8008 2.82223 0)
(-89.2929 2.72933 0)
(-89.7689 2.64103 0)
(-90.2296 2.55732 0)
(-90.6758 2.478 0)
(-91.1083 2.40302 0)
(-91.5279 2.33221 0)
(-91.9354 2.26549 0)
(-92.3314 2.20273 0)
(-92.7167 2.14379 0)
(-93.0919 2.08869 0)
(-93.4575 2.03719 0)
(-93.8143 1.98927 0)
(-94.1629 1.94472 0)
(-94.5039 1.90357 0)
(-94.838 1.86563 0)
(-95.1657 1.83091 0)
(-95.4877 1.79924 0)
(-95.8044 1.77053 0)
(-96.1164 1.74474 0)
(-96.4242 1.72175 0)
(-96.7281 1.70155 0)
(-97.0288 1.68397 0)
(-97.3268 1.66891 0)
(-97.6223 1.65633 0)
(-97.9158 1.64614 0)
(-98.2079 1.63825 0)
(-98.499 1.63251 0)
(-98.7895 1.62888 0)
(-99.0796 1.62729 0)
(-99.3698 1.62761 0)
(-99.6606 1.62976 0)
(-99.9521 1.63359 0)
(-100.245 1.63907 0)
(-100.539 1.64605 0)
(-100.834 1.65438 0)
(-101.131 1.66395 0)
(-101.431 1.67462 0)
(-101.732 1.68621 0)
(-102.036 1.6986 0)
(-102.343 1.7116 0)
(-102.652 1.72503 0)
(-102.965 1.73872 0)
(-103.28 1.75244 0)
(-103.598 1.76601 0)
(-103.918 1.77924 0)
(-104.242 1.79182 0)
(-104.568 1.80356 0)
(-104.897 1.81424 0)
(-105.228 1.82357 0)