/*--------------------------------*- C++ -*----------------------------------*\
| =========                 |                                                 |
| \\      /  F ield         | OpenFOAM: The Open Source CFD Toolbox           |
|  \\    /   O peration     | Version:  2312                                  |
|   \\  /    A nd           | Website:  www.openfoam.com                      |
|    \\/     M anipulation  |                                                 |
\*---------------------------------------------------------------------------*/
FoamFile
{
    version     2.0;
    format      ascii;
    arch        "LSB;label=32;scalar=64";
    class       volScalarField;
    location    "2.3";
    object      T;
}
// * * * * * * * * * * * * * * * * * * * * * * * * * * * * * * * * * * * * * //

dimensions      [0 0 0 1 0 0 0];

internalField   nonuniform List<scalar> 
33600
(
448.668
448.613
448.505
448.343
448.126
447.857
447.534
447.158
446.731
446.252
445.722
445.142
444.513
443.835
443.11
442.338
441.52
440.658
439.752
438.802
437.812
436.78
435.709
434.6
433.453
432.269
431.051
429.798
428.512
427.193
425.844
424.465
423.056
421.619
420.155
418.665
417.15
415.61
414.046
412.46
410.852
409.223
407.573
405.904
404.215
402.509
400.785
399.044
397.286
395.513
393.725
391.922
390.105
388.274
386.431
384.574
382.706
380.826
378.934
377.031
375.118
373.194
371.26
369.317
367.364
365.403
363.432
361.453
359.465
357.47
355.466
353.454
351.435
349.409
347.375
345.334
343.287
341.232
339.17
337.102
335.027
332.945
330.857
328.763
326.662
324.555
322.441
320.321
318.195
316.063
313.924
311.778
309.627
307.469
305.304
303.133
300.956
298.772
296.582
294.384
292.181
289.97
287.753
285.529
283.298
281.06
278.815
276.563
274.304
272.038
269.765
267.485
265.198
262.904
260.603
258.295
255.98
253.658
251.329
248.994
246.652
244.303
241.948
239.588
237.221
234.848
232.471
230.088
227.7
225.307
222.91
220.51
218.105
215.698
213.288
210.875
208.46
206.044
203.627
201.209
448.686
448.632
448.523
448.361
448.145
447.875
447.552
447.176
446.748
446.269
445.739
445.159
444.53
443.852
443.126
442.354
441.536
440.673
439.766
438.817
437.825
436.794
435.722
434.612
433.465
432.281
431.062
429.809
428.522
427.204
425.854
424.474
423.066
421.629
420.164
418.674
417.158
415.618
414.054
412.468
410.859
409.23
407.58
405.91
404.222
402.515
400.79
399.049
397.292
395.518
393.73
391.927
390.11
388.279
386.435
384.579
382.71
380.829
378.938
377.035
375.121
373.197
371.264
369.32
367.368
365.406
363.435
361.456
359.468
357.472
355.469
353.457
351.438
349.411
347.378
345.337
343.289
341.234
339.172
337.104
335.029
332.948
330.86
328.765
326.664
324.557
322.444
320.324
318.197
316.065
313.926
311.781
309.629
307.471
305.307
303.136
300.958
298.774
296.584
294.387
292.183
289.972
287.755
285.531
283.3
281.062
278.817
276.566
274.307
272.041
269.768
267.488
265.201
262.907
260.605
258.297
255.982
253.66
251.331
248.996
246.654
244.305
241.95
239.59
237.223
234.85
232.472
230.089
227.701
225.309
222.912
220.511
218.107
215.699
213.289
210.876
208.461
206.045
203.627
201.209
448.723
448.669
448.56
448.397
448.181
447.911
447.588
447.212
446.783
446.304
445.773
445.193
444.563
443.884
443.158
442.385
441.566
440.703
439.795
438.845
437.853
436.821
435.748
434.638
433.49
432.305
431.085
429.831
428.544
427.225
425.875
424.494
423.085
421.647
420.182
418.691
417.175
415.634
414.07
412.483
410.874
409.244
407.593
405.923
404.234
402.527
400.802
399.06
397.302
395.529
393.74
391.936
390.119
388.288
386.444
384.587
382.718
380.837
378.945
377.042
375.128
373.204
371.27
369.327
367.374
365.412
363.441
361.461
359.474
357.478
355.474
353.462
351.443
349.416
347.383
345.342
343.294
341.239
339.177
337.109
335.034
332.952
330.864
328.77
326.669
324.561
322.448
320.328
318.202
316.069
313.93
311.785
309.633
307.475
305.311
303.14
300.963
298.779
296.588
294.391
292.188
289.977
287.76
285.536
283.305
281.067
278.822
276.57
274.312
272.046
269.773
267.493
265.206
262.911
260.61
258.302
255.987
253.665
251.336
249
246.658
244.31
241.955
239.594
237.227
234.854
232.476
230.093
227.704
225.312
222.914
220.513
218.109
215.701
213.29
210.877
208.462
206.045
203.628
201.209
448.779
448.724
448.615
448.452
448.236
447.965
447.641
447.265
446.836
446.356
445.824
445.243
444.612
443.933
443.206
442.432
441.612
440.747
439.839
438.888
437.895
436.861
435.788
434.676
433.527
432.341
431.12
429.865
428.577
427.257
425.905
424.524
423.113
421.675
420.209
418.717
417.2
415.658
414.093
412.505
410.895
409.264
407.613
405.942
404.253
402.545
400.819
399.077
397.318
395.544
393.755
391.951
390.133
388.301
386.456
384.599
382.73
380.849
378.956
377.053
375.139
373.214
371.28
369.336
367.383
365.421
363.45
361.47
359.482
357.486
355.482
353.47
351.451
349.424
347.39
345.349
343.301
341.246
339.184
337.115
335.04
332.959
330.871
328.776
326.675
324.568
322.454
320.334
318.208
316.076
313.937
311.791
309.64
307.482
305.318
303.147
300.969
298.786
296.595
294.398
292.194
289.984
287.767
285.543
283.312
281.074
278.829
276.578
274.319
272.053
269.78
267.5
265.213
262.919
260.617
258.309
255.994
253.672
251.343
249.007
246.665
244.316
241.961
239.6
237.232
234.86
232.481
230.098
227.709
225.316
222.918
220.517
218.112
215.704
213.293
210.879
208.464
206.047
203.628
201.21
448.853
448.798
448.689
448.526
448.308
448.037
447.713
447.336
446.906
446.425
445.893
445.31
444.678
443.998
443.269
442.494
441.673
440.807
439.897
438.944
437.95
436.915
435.84
434.727
433.576
432.389
431.167
429.911
428.621
427.299
425.946
424.564
423.152
421.712
420.245
418.752
417.233
415.69
414.124
412.535
410.924
409.292
407.64
405.968
404.277
402.569
400.842
399.099
397.34
395.565
393.774
391.97
390.151
388.319
386.474
384.616
382.746
380.864
378.971
377.067
375.153
373.228
371.293
369.349
367.395
365.433
363.461
361.481
359.493
357.497
355.492
353.48
351.461
349.434
347.4
345.358
343.31
341.255
339.193
337.124
335.049
332.968
330.879
328.785
326.684
324.577
322.463
320.343
318.217
316.084
313.945
311.8
309.649
307.491
305.326
303.156
300.978
298.795
296.604
294.407
292.204
289.993
287.776
285.552
283.321
281.084
278.839
276.587
274.328
272.062
269.79
267.51
265.222
262.928
260.627
258.319
256.003
253.681
251.352
249.016
246.674
244.325
241.969
239.608
237.24
234.867
232.488
230.104
227.715
225.322
222.924
220.522
218.116
215.708
213.296
210.882
208.466
206.048
203.629
201.21
448.945
448.89
448.781
448.617
448.4
448.128
447.803
447.424
446.994
446.512
445.978
445.394
444.761
444.079
443.349
442.572
441.749
440.881
439.97
439.015
438.019
436.982
435.906
434.791
433.638
432.449
431.225
429.967
428.676
427.352
425.998
424.613
423.2
421.758
420.289
418.795
417.275
415.73
414.163
412.572
410.96
409.327
407.673
406
404.308
402.598
400.871
399.127
397.366
395.59
393.799
391.994
390.174
388.341
386.495
384.637
382.766
380.884
378.99
377.085
375.17
373.245
371.31
369.365
367.411
365.448
363.476
361.495
359.507
357.51
355.505
353.493
351.473
349.446
347.412
345.37
343.322
341.266
339.204
337.136
335.06
332.979
330.89
328.796
326.695
324.587
322.474
320.354
318.227
316.095
313.956
311.811
309.659
307.502
305.337
303.167
300.989
298.806
296.615
294.419
292.215
290.005
287.788
285.564
283.333
281.095
278.851
276.599
274.34
272.074
269.802
267.522
265.234
262.94
260.639
258.33
256.015
253.693
251.363
249.027
246.685
244.335
241.98
239.618
237.25
234.876
232.497
230.113
227.723
225.329
222.931
220.528
218.122
215.712
213.3
210.885
208.468
206.05
203.63
201.21
449.056
449.001
448.892
448.728
448.509
448.236
447.91
447.531
447.099
446.616
446.081
445.495
444.86
444.176
443.444
442.665
441.841
440.971
440.057
439.101
438.102
437.063
435.984
434.867
433.712
432.521
431.295
430.035
428.741
427.416
426.059
424.672
423.257
421.813
420.343
418.846
417.324
415.778
414.209
412.617
411.003
409.368
407.713
406.039
404.345
402.634
400.905
399.16
397.398
395.621
393.829
392.022
390.202
388.368
386.521
384.661
382.79
380.907
379.012
377.107
375.191
373.265
371.329
369.384
367.429
365.466
363.493
361.513
359.523
357.526
355.521
353.509
351.488
349.461
347.426
345.384
343.336
341.28
339.218
337.149
335.074
332.992
330.904
328.809
326.708
324.6
322.487
320.367
318.24
316.108
313.969
311.824
309.672
307.515
305.35
303.18
301.003
298.819
296.629
294.432
292.229
290.019
287.802
285.578
283.347
281.11
278.865
276.613
274.355
272.089
269.816
267.536
265.249
262.955
260.653
258.345
256.029
253.706
251.377
249.041
246.698
244.348
241.992
239.63
237.262
234.888
232.508
230.123
227.733
225.338
222.939
220.535
218.128
215.718
213.305
210.889
208.472
206.052
203.632
201.211
449.186
449.131
449.021
448.856
448.637
448.363
448.036
447.656
447.222
446.737
446.2
445.613
444.976
444.29
443.556
442.775
441.948
441.075
440.159
439.2
438.199
437.157
436.076
434.956
433.799
432.605
431.377
430.114
428.818
427.49
426.131
424.742
423.324
421.878
420.405
418.906
417.383
415.834
414.263
412.669
411.053
409.417
407.76
406.084
404.389
402.676
400.946
399.199
397.436
395.657
393.864
392.056
390.234
388.399
386.551
384.69
382.818
380.934
379.038
377.132
375.216
373.289
371.352
369.406
367.451
365.487
363.514
361.532
359.543
357.545
355.54
353.527
351.506
349.478
347.443
345.401
343.352
341.296
339.234
337.165
335.089
333.007
330.919
328.824
326.723
324.615
322.502
320.382
318.255
316.123
313.984
311.839
309.688
307.53
305.366
303.195
301.018
298.835
296.645
294.448
292.245
290.035
287.818
285.594
283.364
281.126
278.882
276.63
274.372
272.106
269.833
267.553
265.266
262.971
260.67
258.361
256.046
253.723
251.393
249.056
246.713
244.363
242.007
239.644
237.275
234.901
232.52
230.135
227.744
225.348
222.948
220.544
218.136
215.725
213.311
210.894
208.475
206.055
203.633
201.211
449.334
449.279
449.169
449.003
448.783
448.509
448.18
447.798
447.363
446.876
446.337
445.748
445.108
444.42
443.683
442.9
442.07
441.195
440.276
439.314
438.31
437.265
436.181
435.058
433.898
432.701
431.47
430.204
428.905
427.574
426.212
424.821
423.4
421.952
420.476
418.975
417.449
415.898
414.325
412.728
411.111
409.472
407.813
406.135
404.438
402.724
400.992
399.243
397.478
395.698
393.903
392.094
390.271
388.434
386.585
384.723
382.85
380.965
379.068
377.161
375.244
373.316
371.378
369.432
367.476
365.511
363.537
361.555
359.565
357.567
355.561
353.547
351.526
349.498
347.462
345.42
343.371
341.315
339.252
337.183
335.107
333.025
330.936
328.841
326.74
324.633
322.519
320.399
318.273
316.14
314.001
311.856
309.705
307.547
305.383
303.213
301.036
298.853
296.663
294.466
292.263
290.053
287.836
285.613
283.383
281.145
278.901
276.649
274.391
272.125
269.852
267.572
265.285
262.991
260.689
258.38
256.064
253.741
251.411
249.075
246.731
244.381
242.024
239.66
237.291
234.916
232.535
230.148
227.756
225.36
222.959
220.554
218.145
215.733
213.317
210.899
208.48
206.058
203.635
201.212
449.502
449.446
449.335
449.169
448.948
448.672
448.342
447.958
447.522
447.032
446.491
445.899
445.257
444.566
443.827
443.04
442.207
441.329
440.407
439.442
438.435
437.387
436.299
435.173
434.009
432.809
431.574
430.305
429.003
427.669
426.304
424.91
423.486
422.035
420.557
419.052
417.523
415.97
414.394
412.795
411.175
409.534
407.873
406.193
404.494
402.777
401.043
399.293
397.526
395.744
393.948
392.137
390.312
388.474
386.624
384.761
382.886
380.999
379.102
377.193
375.275
373.346
371.408
369.46
367.503
365.537
363.563
361.58
359.59
357.591
355.584
353.57
351.549
349.52
347.484
345.441
343.392
341.336
339.273
337.203
335.127
333.045
330.956
328.861
326.76
324.652
322.538
320.418
318.292
316.159
314.021
311.876
309.725
307.567
305.403
303.233
301.056
298.873
296.683
294.487
292.284
290.074
287.857
285.634
283.404
281.166
278.922
276.671
274.412
272.147
269.874
267.594
265.307
263.012
260.711
258.402
256.086
253.762
251.432
249.095
246.751
244.4
242.043
239.679
237.309
234.933
232.551
230.163
227.771
225.373
222.971
220.565
218.155
215.741
213.325
210.906
208.484
206.061
203.637
201.213
449.688
449.632
449.521
449.354
449.131
448.854
448.522
448.137
447.698
447.206
446.663
446.068
445.423
444.729
443.986
443.197
442.36
441.479
440.553
439.584
438.573
437.521
436.43
435.3
434.133
432.929
431.691
430.418
429.112
427.775
426.406
425.008
423.581
422.127
420.645
419.138
417.606
416.05
414.471
412.869
411.246
409.603
407.939
406.257
404.555
402.836
401.1
399.348
397.579
395.795
393.997
392.184
390.358
388.518
386.666
384.802
382.925
381.038
379.139
377.229
375.31
373.38
371.44
369.492
367.534
365.567
363.592
361.609
359.617
357.618
355.61
353.596
351.574
349.544
347.508
345.465
343.415
341.358
339.295
337.225
335.149
333.067
330.978
328.883
326.781
324.673
322.56
320.44
318.313
316.181
314.042
311.897
309.746
307.589
305.425
303.255
301.078
298.895
296.706
294.509
292.307
290.097
287.881
285.657
283.427
281.19
278.946
276.695
274.437
272.171
269.898
267.618
265.331
263.037
260.735
258.426
256.109
253.786
251.455
249.118
246.773
244.422
242.064
239.699
237.328
234.951
232.569
230.18
227.787
225.388
222.985
220.577
218.166
215.751
213.333
210.913
208.49
206.065
203.64
201.213
449.893
449.837
449.725
449.557
449.333
449.055
448.721
448.333
447.892
447.398
446.852
446.254
445.606
444.908
444.162
443.369
442.528
441.643
440.713
439.74
438.725
437.67
436.574
435.44
434.269
433.061
431.819
430.542
429.232
427.891
426.519
425.117
423.686
422.228
420.743
419.232
417.697
416.138
414.555
412.951
411.325
409.678
408.012
406.327
404.623
402.902
401.163
399.408
397.638
395.852
394.051
392.236
390.408
388.567
386.713
384.847
382.969
381.08
379.179
377.269
375.348
373.417
371.476
369.526
367.567
365.6
363.624
361.64
359.647
357.647
355.639
353.624
351.601
349.571
347.535
345.491
343.441
341.384
339.32
337.25
335.174
333.091
331.002
328.906
326.805
324.697
322.583
320.463
318.337
316.204
314.066
311.921
309.77
307.613
305.449
303.279
301.103
298.92
296.73
294.534
292.332
290.122
287.906
285.683
283.453
281.216
278.972
276.721
274.463
272.198
269.925
267.645
265.358
263.063
260.761
258.452
256.136
253.812
251.481
249.143
246.798
244.446
242.087
239.722
237.35
234.972
232.589
230.199
227.804
225.405
223
220.591
218.178
215.762
213.342
210.92
208.496
206.07
203.642
201.214
450.117
450.061
449.948
449.779
449.554
449.274
448.938
448.548
448.104
447.607
447.058
446.457
445.805
445.104
444.354
443.557
442.712
441.823
440.888
439.911
438.892
437.832
436.732
435.593
434.417
433.205
431.958
430.677
429.363
428.017
426.641
425.235
423.8
422.338
420.849
419.335
417.796
416.233
414.647
413.04
411.41
409.761
408.092
406.403
404.697
402.973
401.231
399.474
397.701
395.913
394.11
392.293
390.463
388.62
386.764
384.896
383.016
381.126
379.224
377.312
375.389
373.457
371.515
369.564
367.604
365.636
363.658
361.673
359.68
357.679
355.67
353.654
351.631
349.601
347.563
345.519
343.468
341.411
339.347
337.277
335.2
333.117
331.028
328.932
326.83
324.723
322.609
320.489
318.362
316.23
314.092
311.947
309.796
307.639
305.475
303.305
301.129
298.947
296.757
294.562
292.359
290.15
287.934
285.711
283.482
281.245
279.001
276.75
274.492
272.227
269.954
267.674
265.387
263.092
260.79
258.481
256.164
253.84
251.509
249.17
246.825
244.472
242.113
239.747
237.374
234.995
232.611
230.22
227.824
225.423
223.017
220.606
218.192
215.774
213.353
210.929
208.502
206.074
203.645
201.215
450.361
450.304
450.191
450.02
449.794
449.512
449.174
448.782
448.335
447.835
447.282
446.677
446.022
445.317
444.562
443.76
442.911
442.017
441.078
440.096
439.072
438.007
436.902
435.759
434.578
433.361
432.109
430.823
429.504
428.154
426.773
425.363
423.924
422.458
420.965
419.446
417.903
416.337
414.747
413.136
411.503
409.85
408.177
406.486
404.776
403.049
401.305
399.545
397.77
395.979
394.174
392.355
390.522
388.677
386.819
384.949
383.068
381.175
379.272
377.358
375.434
373.5
371.557
369.605
367.644
365.674
363.696
361.71
359.715
357.713
355.704
353.687
351.663
349.632
347.595
345.55
343.499
341.441
339.376
337.306
335.229
333.145
331.056
328.96
326.858
324.75
322.636
320.516
318.39
316.258
314.119
311.975
309.824
307.667
305.504
303.334
301.158
298.976
296.787
294.591
292.389
290.18
287.964
285.742
283.512
281.276
279.032
276.782
274.524
272.258
269.986
267.706
265.419
263.124
260.822
258.512
256.195
253.871
251.539
249.2
246.854
244.501
242.141
239.774
237.4
235.02
232.634
230.242
227.845
225.442
223.035
220.623
218.207
215.787
213.364
210.938
208.51
206.08
203.648
201.216
450.624
450.567
450.452
450.281
450.053
449.768
449.428
449.033
448.583
448.08
447.523
446.915
446.255
445.546
444.787
443.98
443.126
442.227
441.283
440.296
439.266
438.196
437.086
435.937
434.751
433.529
432.272
430.981
429.657
428.301
426.916
425.5
424.057
422.586
421.088
419.566
418.018
416.448
414.854
413.239
411.602
409.946
408.27
406.575
404.862
403.132
401.385
399.622
397.843
396.05
394.242
392.421
390.586
388.738
386.878
385.006
383.123
381.228
379.323
377.408
375.482
373.547
371.602
369.649
367.686
365.715
363.736
361.749
359.753
357.751
355.74
353.723
351.698
349.666
347.628
345.583
343.531
341.473
339.408
337.337
335.259
333.176
331.086
328.99
326.888
324.78
322.666
320.546
318.42
316.288
314.149
312.005
309.854
307.697
305.534
303.365
301.189
299.007
296.818
294.623
292.421
290.212
287.997
285.775
283.545
281.309
279.066
276.815
274.558
272.292
270.02
267.74
265.453
263.158
260.856
258.546
256.229
253.904
251.572
249.232
246.886
244.532
242.171
239.803
237.428
235.047
232.66
230.267
227.868
225.464
223.055
220.641
218.223
215.801
213.376
210.948
208.517
206.085
203.652
201.217
450.906
450.848
450.733
450.56
450.331
450.044
449.702
449.303
448.85
448.343
447.783
447.17
446.506
445.791
445.027
444.216
443.357
442.452
441.502
440.509
439.474
438.398
437.282
436.128
434.936
433.708
432.446
431.149
429.82
428.459
427.068
425.648
424.199
422.723
421.221
419.694
418.142
416.566
414.969
413.349
411.709
410.048
408.368
406.67
404.953
403.22
401.47
399.704
397.922
396.126
394.315
392.491
390.654
388.804
386.941
385.067
383.182
381.285
379.378
377.461
375.534
373.597
371.651
369.695
367.732
365.759
363.779
361.79
359.794
357.79
355.779
353.761
351.735
349.703
347.664
345.618
343.565
341.507
339.441
337.37
335.292
333.208
331.118
329.022
326.92
324.812
322.698
320.578
318.452
316.32
314.181
312.037
309.886
307.73
305.567
303.398
301.222
299.04
296.852
294.657
292.455
290.247
288.032
285.81
283.581
281.345
279.102
276.852
274.594
272.329
270.057
267.777
265.49
263.195
260.892
258.583
256.265
253.94
251.607
249.267
246.92
244.565
242.203
239.834
237.459
235.077
232.688
230.293
227.893
225.487
223.076
220.66
218.24
215.816
213.389
210.958
208.526
206.091
203.655
201.219
451.208
451.15
451.034
450.86
450.628
450.339
449.994
449.592
449.136
448.624
448.06
447.442
446.773
446.054
445.285
444.467
443.602
442.692
441.736
440.737
439.696
438.614
437.492
436.332
435.134
433.9
432.631
431.329
429.994
428.627
427.231
425.805
424.351
422.869
421.362
419.83
418.273
416.693
415.091
413.467
411.822
410.157
408.473
406.771
405.051
403.314
401.56
399.791
398.006
396.207
394.393
392.566
390.726
388.873
387.009
385.132
383.244
381.346
379.437
377.517
375.588
373.65
371.702
369.745
367.78
365.806
363.824
361.835
359.837
357.832
355.82
353.801
351.775
349.741
347.702
345.655
343.602
341.543
339.477
337.405
335.327
333.243
331.153
329.057
326.954
324.846
322.732
320.612
318.486
316.354
314.215
312.071
309.921
307.764
305.602
303.433
301.257
299.076
296.888
294.693
292.492
290.284
288.069
285.847
283.619
281.383
279.14
276.89
274.633
272.368
270.096
267.816
265.529
263.234
260.932
258.622
256.304
253.978
251.645
249.305
246.956
244.601
242.238
239.868
237.491
235.108
232.718
230.322
227.919
225.512
223.099
220.681
218.259
215.832
213.403
210.97
208.535
206.098
203.659
201.22
451.53
451.471
451.354
451.178
450.944
450.653
450.305
449.9
449.439
448.924
448.355
447.732
447.058
446.333
445.558
444.735
443.864
442.947
441.985
440.98
439.932
438.844
437.715
436.548
435.344
434.103
432.828
431.519
430.178
428.806
427.403
425.971
424.511
423.024
421.512
419.974
418.412
416.827
415.22
413.591
411.942
410.273
408.585
406.878
405.154
403.413
401.656
399.883
398.095
396.292
394.475
392.646
390.803
388.947
387.08
385.201
383.311
381.41
379.499
377.577
375.646
373.706
371.756
369.798
367.831
365.856
363.873
361.882
359.883
357.877
355.864
353.844
351.816
349.782
347.742
345.695
343.641
341.581
339.515
337.443
335.364
333.28
331.189
329.093
326.99
324.882
322.768
320.648
318.522
316.39
314.251
312.107
309.957
307.801
305.639
303.47
301.295
299.114
296.926
294.732
292.531
290.323
288.109
285.887
283.659
281.424
279.181
276.931
274.674
272.41
270.138
267.858
265.571
263.276
260.973
258.663
256.345
254.019
251.686
249.344
246.996
244.639
242.275
239.904
237.526
235.141
232.75
230.352
227.948
225.538
223.123
220.703
218.279
215.85
213.418
210.982
208.545
206.105
203.663
201.221
451.872
451.812
451.694
451.517
451.281
450.987
450.635
450.226
449.762
449.242
448.668
448.04
447.36
446.629
445.848
445.019
444.141
443.218
442.249
441.237
440.182
439.087
437.951
436.777
435.566
434.319
433.037
431.721
430.373
428.994
427.585
426.147
424.681
423.188
421.67
420.126
418.559
416.969
415.356
413.723
412.069
410.395
408.702
406.991
405.263
403.518
401.757
399.98
398.188
396.382
394.562
392.729
390.883
389.025
387.155
385.273
383.381
381.477
379.564
377.64
375.707
373.765
371.814
369.854
367.885
365.908
363.924
361.931
359.932
357.924
355.91
353.889
351.86
349.826
347.784
345.736
343.682
341.621
339.555
337.482
335.403
333.318
331.228
329.131
327.029
324.92
322.806
320.686
318.56
316.428
314.29
312.146
309.996
307.84
305.678
303.509
301.335
299.154
296.966
294.772
292.572
290.365
288.151
285.93
283.702
281.467
279.225
276.975
274.718
272.454
270.182
267.903
265.616
263.321
261.018
258.707
256.389
254.063
251.729
249.387
247.037
244.68
242.315
239.943
237.564
235.177
232.784
230.384
227.978
225.567
223.149
220.727
218.3
215.869
213.434
210.996
208.555
206.112
203.668
201.223
452.234
452.174
452.054
451.875
451.637
451.34
450.985
450.572
450.103
449.578
448.999
448.366
447.68
446.943
446.155
445.318
444.434
443.504
442.528
441.508
440.446
439.343
438.2
437.019
435.8
434.546
433.256
431.934
430.579
429.193
427.777
426.333
424.86
423.361
421.836
420.287
418.714
417.118
415.5
413.861
412.202
410.523
408.826
407.11
405.378
403.628
401.863
400.082
398.287
396.477
394.654
392.818
390.968
389.107
387.234
385.35
383.454
381.549
379.633
377.707
375.772
373.827
371.874
369.912
367.942
365.964
363.977
361.984
359.982
357.974
355.958
353.936
351.907
349.871
347.829
345.78
343.725
341.664
339.597
337.524
335.444
333.359
331.268
329.171
327.069
324.96
322.846
320.726
318.6
316.468
314.33
312.186
310.036
307.881
305.719
303.551
301.376
299.196
297.009
294.815
292.615
290.408
288.195
285.974
283.747
281.512
279.27
277.021
274.765
272.501
270.229
267.95
265.663
263.368
261.065
258.754
256.436
254.109
251.774
249.432
247.082
244.723
242.358
239.984
237.603
235.215
232.82
230.419
228.011
225.597
223.177
220.752
218.323
215.889
213.451
211.01
208.566
206.12
203.673
201.224
452.616
452.555
452.434
452.253
452.013
451.713
451.354
450.937
450.463
449.933
449.348
448.709
448.017
447.273
446.478
445.635
444.743
443.805
442.821
441.794
440.724
439.613
438.462
437.273
436.047
434.784
433.488
432.158
430.795
429.402
427.979
426.528
425.048
423.543
422.011
420.456
418.877
417.275
415.651
414.007
412.342
410.658
408.956
407.235
405.498
403.744
401.975
400.19
398.39
396.577
394.75
392.91
391.058
389.193
387.317
385.43
383.532
381.623
379.705
377.777
375.839
373.892
371.937
369.973
368.001
366.021
364.034
362.038
360.036
358.026
356.009
353.986
351.955
349.919
347.875
345.826
343.77
341.709
339.641
337.567
335.487
333.402
331.311
329.214
327.111
325.002
322.888
320.768
318.642
316.51
314.372
312.229
310.079
307.924
305.762
303.594
301.421
299.24
297.054
294.861
292.661
290.455
288.241
286.021
283.794
281.56
279.319
277.07
274.814
272.55
270.279
268
265.713
263.418
261.115
258.804
256.485
254.158
251.823
249.48
247.128
244.769
242.402
240.028
237.645
235.256
232.859
230.456
228.046
225.629
223.207
220.78
218.347
215.91
213.469
211.025
208.578
206.129
203.678
201.226
453.019
452.958
452.835
452.652
452.409
452.105
451.743
451.322
450.843
450.307
449.716
449.07
448.372
447.62
446.819
445.967
445.068
444.121
443.13
442.094
441.016
439.897
438.738
437.54
436.306
435.035
433.73
432.392
431.022
429.621
428.191
426.732
425.245
423.733
422.195
420.633
419.047
417.439
415.809
414.159
412.488
410.799
409.091
407.366
405.624
403.865
402.091
400.302
398.499
396.681
394.85
393.007
391.151
389.283
387.404
385.513
383.612
381.701
379.78
377.849
375.909
373.961
372.003
370.037
368.064
366.082
364.092
362.095
360.091
358.08
356.062
354.037
352.006
349.968
347.924
345.874
343.818
341.755
339.687
337.613
335.533
333.447
331.355
329.258
327.155
325.046
322.932
320.811
318.686
316.554
314.416
312.273
310.124
307.969
305.807
303.64
301.467
299.287
297.101
294.908
292.709
290.503
288.29
286.071
283.844
281.611
279.37
277.121
274.865
272.602
270.331
268.052
265.765
263.47
261.167
258.856
256.537
254.21
251.874
249.53
247.178
244.818
242.45
240.074
237.69
235.299
232.9
230.495
228.082
225.663
223.239
220.808
218.373
215.933
213.489
211.041
208.591
206.138
203.683
201.228
453.443
453.381
453.257
453.072
452.825
452.518
452.151
451.726
451.241
450.7
450.103
449.45
448.744
447.985
447.175
446.316
445.408
444.453
443.453
442.409
441.322
440.194
439.026
437.82
436.576
435.297
433.984
432.638
431.259
429.851
428.412
426.945
425.452
423.932
422.386
420.817
419.225
417.61
415.974
414.318
412.642
410.946
409.233
407.503
405.755
403.992
402.213
400.419
398.612
396.79
394.955
393.108
391.248
389.377
387.494
385.601
383.697
381.782
379.859
377.925
375.983
374.032
372.072
370.104
368.128
366.145
364.154
362.155
360.149
358.137
356.118
354.092
352.059
350.02
347.975
345.924
343.867
341.804
339.735
337.66
335.58
333.493
331.402
329.304
327.201
325.092
322.977
320.857
318.731
316.6
314.463
312.32
310.171
308.016
305.855
303.688
301.515
299.336
297.15
294.958
292.759
290.554
288.342
286.123
283.897
281.664
279.423
277.175
274.92
272.657
270.386
268.107
265.82
263.526
261.223
258.911
256.592
254.264
251.928
249.583
247.23
244.869
242.5
240.123
237.737
235.344
232.944
230.536
228.121
225.7
223.272
220.839
218.4
215.957
213.509
211.058
208.604
206.147
203.689
201.23
453.887
453.825
453.699
453.512
453.262
452.952
452.58
452.149
451.659
451.112
450.508
449.848
449.134
448.367
447.549
446.681
445.765
444.801
443.792
442.738
441.642
440.505
439.327
438.112
436.86
435.572
434.249
432.894
431.507
430.09
428.643
427.168
425.667
424.139
422.586
421.01
419.41
417.789
416.146
414.483
412.801
411.1
409.381
407.645
405.892
404.124
402.34
400.542
398.729
396.903
395.064
393.213
391.349
389.474
387.588
385.691
383.784
381.867
379.94
378.004
376.06
374.106
372.144
370.174
368.196
366.21
364.217
362.217
360.21
358.196
356.175
354.148
352.114
350.075
348.029
345.976
343.919
341.855
339.785
337.71
335.629
333.542
331.45
329.352
327.249
325.14
323.025
320.905
318.779
316.648
314.511
312.368
310.219
308.065
305.904
303.738
301.565
299.387
297.201
295.01
292.812
290.607
288.395
286.177
283.952
281.719
279.479
277.231
274.977
272.714
270.443
268.165
265.878
263.584
261.281
258.969
256.65
254.321
251.985
249.639
247.286
244.924
242.553
240.174
237.787
235.392
232.989
230.579
228.162
225.738
223.308
220.871
218.429
215.982
213.531
211.076
208.618
206.158
203.695
201.232
454.354
454.29
454.163
453.973
453.72
453.406
453.03
452.593
452.097
451.543
450.932
450.264
449.542
448.767
447.94
447.063
446.137
445.164
444.145
443.082
441.976
440.829
439.642
438.417
437.155
435.857
434.526
433.161
431.765
430.339
428.884
427.4
425.89
424.355
422.794
421.21
419.603
417.975
416.325
414.656
412.967
411.26
409.535
407.793
406.035
404.261
402.472
400.668
398.851
397.021
395.178
393.322
391.455
389.576
387.686
385.786
383.875
381.955
380.025
378.087
376.139
374.183
372.218
370.246
368.266
366.278
364.284
362.282
360.273
358.257
356.235
354.206
352.172
350.131
348.084
346.031
343.972
341.907
339.837
337.761
335.68
333.593
331.5
329.402
327.298
325.189
323.075
320.955
318.829
316.698
314.561
312.418
310.27
308.116
305.956
303.79
301.618
299.44
297.255
295.064
292.867
290.662
288.451
286.234
284.009
281.777
279.537
277.29
275.036
272.774
270.504
268.225
265.939
263.645
261.342
259.03
256.71
254.382
252.044
249.698
247.344
244.981
242.609
240.228
237.84
235.443
233.038
230.625
228.205
225.779
223.345
220.905
218.46
216.009
213.554
211.095
208.633
206.168
203.702
201.234
454.841
454.777
454.648
454.455
454.199
453.88
453.499
453.057
452.555
451.994
451.375
450.699
449.969
449.185
448.348
447.462
446.526
445.543
444.514
443.44
442.324
441.167
439.969
438.734
437.462
436.155
434.813
433.439
432.034
430.598
429.134
427.642
426.123
424.579
423.01
421.418
419.804
418.168
416.511
414.835
413.139
411.425
409.694
407.946
406.182
404.403
402.609
400.8
398.978
397.143
395.295
393.435
391.564
389.681
387.787
385.884
383.97
382.046
380.113
378.172
376.221
374.263
372.296
370.321
368.339
366.349
364.352
362.348
360.338
358.321
356.297
354.267
352.231
350.189
348.141
346.087
344.027
341.962
339.891
337.815
335.733
333.645
331.552
329.454
327.35
325.241
323.126
321.006
318.881
316.75
314.613
312.471
310.323
308.169
306.01
303.844
301.672
299.495
297.311
295.12
292.924
290.72
288.51
286.293
284.068
281.837
279.598
277.352
275.098
272.836
270.567
268.289
266.003
263.708
261.405
259.094
256.774
254.445
252.107
249.76
247.405
245.04
242.667
240.285
237.895
235.496
233.089
230.674
228.251
225.821
223.384
220.941
218.492
216.038
213.579
211.116
208.649
206.18
203.709
201.236
455.351
455.286
455.155
454.96
454.7
454.376
453.99
453.542
453.033
452.464
451.837
451.153
450.413
449.62
448.774
447.877
446.931
445.937
444.897
443.813
442.686
441.518
440.31
439.064
437.781
436.463
435.112
433.728
432.312
430.867
429.393
427.892
426.364
424.811
423.234
421.634
420.011
418.368
416.704
415.02
413.317
411.597
409.859
408.105
406.335
404.55
402.75
400.936
399.109
397.269
395.417
393.552
391.677
389.79
387.892